ESCALE ; pCOHP file generated by LOBSTER. Energy is shifted such that the Fermi level lies at 0 eV.
        12          1        601  -1.27470e+01   1.73031e+01   2.27804e+00 
Average
No.1:K32->K20(4.1211601189932745)
No.2:K33->K32(3.5366625321373029)
No.3:K22->K20(6.3618111512347006)
No.4:Au60->K20(4.0746462275510114)
No.5:Au60->K32(3.6393894745615656)
No.6:Sb3->K20(4.0267407217071085)
No.7:Sb3->K32(3.679492466183468)
No.8:Au44->Au60(3.1809055756173508)
No.9:Sb3->Sb2(6.3618111512347006)
No.10:Au44->Sb3(2.7056611169348055)
No.11:K33->Sb1(3.5193603395780322)
-15.02504   0.00000  -0.08517   0.00000  -0.22495   0.00000  -0.52571   0.00000  -0.00310   0.00000  -0.01393   0.00000  -0.04483   0.00000  -0.01382   0.00000  -0.03550   0.00000  -0.00190   0.00000   0.00015   0.00000  -0.00114   0.00000  -0.07218
-14.97496  -0.00007  -0.08518  -0.00034  -0.22496   0.00003  -0.52571   0.00000  -0.00310  -0.00007  -0.01393  -0.00001  -0.04483  -0.00026  -0.01383  -0.00003  -0.03550  -0.00000  -0.00190  -0.00000   0.00015  -0.00001  -0.00114  -0.00010  -0.07218
-14.92487  -0.00022  -0.08519  -0.00099  -0.22501   0.00008  -0.52571   0.00000  -0.00310  -0.00023  -0.01394  -0.00003  -0.04483  -0.00077  -0.01387  -0.00010  -0.03551  -0.00001  -0.00191  -0.00001   0.00015  -0.00004  -0.00114  -0.00029  -0.07220
-14.87479  -0.00056  -0.08522  -0.00258  -0.22514   0.00021  -0.52570   0.00000  -0.00310  -0.00063  -0.01398  -0.00007  -0.04483  -0.00201  -0.01397  -0.00025  -0.03552  -0.00003  -0.00191  -0.00001   0.00015  -0.00010  -0.00115  -0.00073  -0.07224
-14.82471  -0.00131  -0.08528  -0.00594  -0.22544   0.00047  -0.52567  -0.00001  -0.00310  -0.00157  -0.01405  -0.00017  -0.04484  -0.00462  -0.01420  -0.00058  -0.03555  -0.00007  -0.00191  -0.00003   0.00014  -0.00024  -0.00116  -0.00166  -0.07232
-14.77462  -0.00270  -0.08542  -0.01208  -0.22605   0.00087  -0.52563  -0.00005  -0.00311  -0.00345  -0.01423  -0.00036  -0.04486  -0.00938  -0.01467  -0.00119  -0.03561  -0.00016  -0.00192  -0.00006   0.00014  -0.00051  -0.00119  -0.00332  -0.07248
-14.72454  -0.00494  -0.08567  -0.02173  -0.22713   0.00127  -0.52557  -0.00014  -0.00311  -0.00671  -0.01456  -0.00069  -0.04490  -0.01685  -0.01552  -0.00215  -0.03572  -0.00033  -0.00193  -0.00010   0.00014  -0.00094  -0.00123  -0.00592  -0.07278
-14.67446  -0.00806  -0.08607  -0.03461  -0.22887   0.00102  -0.52551  -0.00029  -0.00313  -0.01158  -0.01514  -0.00120  -0.04496  -0.02677  -0.01686  -0.00346  -0.03589  -0.00058  -0.00196  -0.00015   0.00013  -0.00155  -0.00131  -0.00947  -0.07326
-14.62437  -0.01184  -0.08666  -0.04885  -0.23131  -0.00150  -0.52559  -0.00050  -0.00315  -0.01771  -0.01603  -0.00194  -0.04505  -0.03763  -0.01874  -0.00494  -0.03614  -0.00092  -0.00201  -0.00021   0.00012  -0.00226  -0.00142  -0.01382  -0.07395
-14.57429  -0.01591  -0.08746  -0.06116  -0.23438  -0.00954  -0.52607  -0.00072  -0.00319  -0.02399  -0.01723  -0.00299  -0.04520  -0.04679  -0.02109  -0.00631  -0.03645  -0.00131  -0.00208  -0.00024   0.00011  -0.00293  -0.00157  -0.01897  -0.07490
-14.52421  -0.02003  -0.08846  -0.06812  -0.23779  -0.02820  -0.52748  -0.00089  -0.00323  -0.02877  -0.01867  -0.00457  -0.04543  -0.05150  -0.02367  -0.00732  -0.03682  -0.00168  -0.00216  -0.00025   0.00009  -0.00340  -0.00174  -0.02559  -0.07618
-14.47412  -0.02447  -0.08969  -0.06789  -0.24119  -0.06345  -0.53066  -0.00095  -0.00328  -0.03055  -0.02020  -0.00707  -0.04579  -0.05021  -0.02618  -0.00806  -0.03722  -0.00200  -0.00226  -0.00023   0.00008  -0.00358  -0.00192  -0.03520  -0.07794
-14.42404  -0.02997  -0.09119  -0.06136  -0.24426  -0.11914  -0.53662  -0.00088  -0.00333  -0.02868  -0.02164  -0.01113  -0.04634  -0.04340  -0.02835  -0.00923  -0.03769  -0.00227  -0.00237  -0.00020   0.00007  -0.00360  -0.00210  -0.04974  -0.08043
-14.37396  -0.03714  -0.09305  -0.05178  -0.24685  -0.19244  -0.54626  -0.00069  -0.00336  -0.02379  -0.02283  -0.01746  -0.04722  -0.03335  -0.03002  -0.01231  -0.03830  -0.00255  -0.00250  -0.00018   0.00006  -0.00380  -0.00229  -0.07019  -0.08395
-14.32387  -0.04578  -0.09534  -0.04322  -0.24902  -0.27032  -0.55980  -0.00046  -0.00338  -0.01739  -0.02370  -0.02657  -0.04855  -0.02292  -0.03117  -0.01945  -0.03928  -0.00296  -0.00265  -0.00020   0.00005  -0.00472  -0.00253  -0.09537  -0.08873
-14.27379  -0.05448  -0.09807  -0.03879  -0.25096  -0.33093  -0.57637  -0.00024  -0.00340  -0.01114  -0.02426  -0.03846  -0.05047  -0.01430  -0.03189  -0.03288  -0.04092  -0.00353  -0.00283  -0.00028   0.00004  -0.00688  -0.00287  -0.12185  -0.09483
-14.22371  -0.06112  -0.10113  -0.03951  -0.25294  -0.35170  -0.59399  -0.00005  -0.00340  -0.00619  -0.02457  -0.05224  -0.05309  -0.00842  -0.03231  -0.05365  -0.04361  -0.00426  -0.00304  -0.00043   0.00002  -0.01042  -0.00339  -0.14548  -0.10211
-14.17362  -0.06390  -0.10433  -0.04424  -0.25516  -0.32075  -0.61005   0.00008  -0.00339  -0.00287  -0.02471  -0.06595  -0.05639  -0.00506  -0.03256  -0.08021  -0.04763  -0.00499  -0.00329  -0.00063  -0.00001  -0.01494  -0.00414  -0.16333  -0.11030
-14.12354  -0.06211  -0.10744  -0.05031  -0.25768  -0.24432  -0.62229   0.00016  -0.00339  -0.00097  -0.02476  -0.07669  -0.06023  -0.00344  -0.03274  -0.10758  -0.05302  -0.00553  -0.00357  -0.00084  -0.00006  -0.01935  -0.00511  -0.17431  -0.11903
-14.07346  -0.05625  -0.11026  -0.05450  -0.26041  -0.14472  -0.62954   0.00020  -0.00338  -0.00003  -0.02476  -0.08149  -0.06432  -0.00274  -0.03287  -0.12847  -0.05945  -0.00568  -0.00385  -0.00100  -0.00011  -0.02230  -0.00623  -0.17801  -0.12794
-14.02337  -0.04755  -0.11264  -0.05431  -0.26313  -0.04977  -0.63203   0.00020  -0.00337   0.00035  -0.02475  -0.07849  -0.06825  -0.00236  -0.03299  -0.13615  -0.06627  -0.00532  -0.00412  -0.00106  -0.00016  -0.02272  -0.00737  -0.17344  -0.13663
-13.97329  -0.03746  -0.11452  -0.04893  -0.26558   0.01936  -0.63106   0.00018  -0.00336   0.00045  -0.02472  -0.06810  -0.07166  -0.00199  -0.03309  -0.12790  -0.07267  -0.00450  -0.00434  -0.00099  -0.00021  -0.02046  -0.00839  -0.15924  -0.14460
-13.92321  -0.02735  -0.11589  -0.03952  -0.26756   0.05504  -0.62830   0.00013  -0.00335   0.00042  -0.02470  -0.05293  -0.07431  -0.00155  -0.03317  -0.10642  -0.07800  -0.00342  -0.00451  -0.00082  -0.00025  -0.01628  -0.00921  -0.13551  -0.15139
-13.87312  -0.01834  -0.11681  -0.02847  -0.26898   0.06213  -0.62519   0.00009  -0.00335   0.00033  -0.02469  -0.03673  -0.07615  -0.00109  -0.03322  -0.07841  -0.08193  -0.00232  -0.00463  -0.00060  -0.00028  -0.01144  -0.00978  -0.10526  -0.15666
-13.82304  -0.01120  -0.11737  -0.01825  -0.26990   0.05195  -0.62259   0.00005  -0.00334   0.00022  -0.02467  -0.02268  -0.07728  -0.00069  -0.03326  -0.05114  -0.08449  -0.00140  -0.00470  -0.00039  -0.00030  -0.00710  -0.01013  -0.07376  -0.16035
-13.77295  -0.00617  -0.11768  -0.01039  -0.27042   0.03582  -0.62080   0.00002  -0.00334   0.00013  -0.02467  -0.01244  -0.07791  -0.00038  -0.03328  -0.02952  -0.08597  -0.00075  -0.00474  -0.00023  -0.00031  -0.00389  -0.01033  -0.04626  -0.16267
-13.72287  -0.00305  -0.11783  -0.00525  -0.27068   0.02113  -0.61974   0.00001  -0.00334   0.00007  -0.02466  -0.00606  -0.07821  -0.00019  -0.03329  -0.01508  -0.08673  -0.00036  -0.00475  -0.00011  -0.00032  -0.00189  -0.01042  -0.02584  -0.16397
-13.67279  -0.00135  -0.11790  -0.00235  -0.27080   0.01085  -0.61919   0.00000  -0.00334   0.00003  -0.02466  -0.00261  -0.07834  -0.00008  -0.03329  -0.00682  -0.08707  -0.00015  -0.00476  -0.00005  -0.00032  -0.00081  -0.01046  -0.01281  -0.16461
-13.62270  -0.00053  -0.11792  -0.00093  -0.27084   0.00488  -0.61895   0.00000  -0.00334   0.00001  -0.02466  -0.00100  -0.07839  -0.00003  -0.03329  -0.00273  -0.08720  -0.00006  -0.00477  -0.00002  -0.00032  -0.00031  -0.01048  -0.00563  -0.16489
-13.57262  -0.00018  -0.11793  -0.00033  -0.27086   0.00193  -0.61885   0.00000  -0.00334   0.00001  -0.02466  -0.00034  -0.07841  -0.00001  -0.03329  -0.00097  -0.08725  -0.00002  -0.00477  -0.00001  -0.00032  -0.00010  -0.01048  -0.00219  -0.16500
-13.52254  -0.00006  -0.11793  -0.00010  -0.27086   0.00067  -0.61882   0.00000  -0.00334   0.00000  -0.02466  -0.00010  -0.07841  -0.00000  -0.03329  -0.00030  -0.08727  -0.00001  -0.00477  -0.00000  -0.00032  -0.00003  -0.01049  -0.00075  -0.16504
-13.47245  -0.00002  -0.11793  -0.00003  -0.27087   0.00021  -0.61881   0.00000  -0.00334   0.00000  -0.02466  -0.00003  -0.07842  -0.00000  -0.03329  -0.00008  -0.08727  -0.00000  -0.00477  -0.00000  -0.00032  -0.00001  -0.01049  -0.00023  -0.16505
-13.42237  -0.00000  -0.11793  -0.00001  -0.27087   0.00006  -0.61881   0.00000  -0.00334   0.00000  -0.02466  -0.00001  -0.07842  -0.00000  -0.03329  -0.00002  -0.08727  -0.00000  -0.00477  -0.00000  -0.00032  -0.00000  -0.01049  -0.00006  -0.16505
-13.37229  -0.00000  -0.11794  -0.00000  -0.27087   0.00001  -0.61881  -0.00000  -0.00334   0.00000  -0.02466  -0.00000  -0.07842  -0.00000  -0.03329  -0.00000  -0.08727  -0.00000  -0.00477  -0.00000  -0.00032  -0.00000  -0.01049  -0.00001  -0.16505
-13.32220  -0.00000  -0.11794  -0.00000  -0.27087   0.00000  -0.61881  -0.00000  -0.00334   0.00000  -0.02466  -0.00000  -0.07842  -0.00000  -0.03329  -0.00000  -0.08727  -0.00000  -0.00477  -0.00000  -0.00032  -0.00000  -0.01049  -0.00000  -0.16505
-13.27212  -0.00000  -0.11794  -0.00000  -0.27087   0.00000  -0.61881  -0.00000  -0.00334   0.00000  -0.02466  -0.00000  -0.07842  -0.00000  -0.03329  -0.00000  -0.08727  -0.00000  -0.00477  -0.00000  -0.00032  -0.00000  -0.01049  -0.00000  -0.16505
-13.22204  -0.00000  -0.11794  -0.00000  -0.27087   0.00000  -0.61881  -0.00000  -0.00334   0.00000  -0.02466  -0.00000  -0.07842  -0.00000  -0.03329  -0.00000  -0.08727  -0.00000  -0.00477  -0.00000  -0.00032  -0.00000  -0.01049  -0.00000  -0.16505
-13.17195  -0.00000  -0.11794  -0.00000  -0.27087   0.00000  -0.61881  -0.00000  -0.00334   0.00000  -0.02466  -0.00000  -0.07842  -0.00000  -0.03329  -0.00000  -0.08727  -0.00000  -0.00477  -0.00000  -0.00032  -0.00000  -0.01049  -0.00000  -0.16505
-13.12187  -0.00000  -0.11794  -0.00000  -0.27087   0.00000  -0.61881  -0.00000  -0.00334   0.00000  -0.02466  -0.00000  -0.07842  -0.00000  -0.03329  -0.00000  -0.08727  -0.00000  -0.00477  -0.00000  -0.00032  -0.00000  -0.01049  -0.00000  -0.16505
-13.07179  -0.00000  -0.11794  -0.00000  -0.27087   0.00000  -0.61881  -0.00000  -0.00334   0.00000  -0.02466  -0.00000  -0.07842  -0.00000  -0.03329  -0.00000  -0.08727  -0.00000  -0.00477  -0.00000  -0.00032  -0.00000  -0.01049  -0.00000  -0.16505
-13.02170  -0.00000  -0.11794  -0.00000  -0.27087   0.00000  -0.61881  -0.00000  -0.00334   0.00000  -0.02466  -0.00000  -0.07842  -0.00000  -0.03329  -0.00000  -0.08727  -0.00000  -0.00477  -0.00000  -0.00032  -0.00000  -0.01049  -0.00000  -0.16505
-12.97162  -0.00000  -0.11794  -0.00000  -0.27087   0.00000  -0.61881  -0.00000  -0.00334   0.00000  -0.02466  -0.00000  -0.07842  -0.00000  -0.03329  -0.00000  -0.08727  -0.00000  -0.00477  -0.00000  -0.00032  -0.00000  -0.01049  -0.00000  -0.16505
-12.92154  -0.00000  -0.11794  -0.00000  -0.27087   0.00000  -0.61881  -0.00000  -0.00334   0.00000  -0.02466  -0.00000  -0.07842  -0.00000  -0.03329  -0.00000  -0.08727  -0.00000  -0.00477  -0.00000  -0.00032  -0.00000  -0.01049  -0.00000  -0.16505
-12.87145  -0.00000  -0.11794  -0.00000  -0.27087   0.00000  -0.61881  -0.00000  -0.00334  -0.00000  -0.02466  -0.00000  -0.07842   0.00000  -0.03329  -0.00000  -0.08727  -0.00000  -0.00477  -0.00000  -0.00032  -0.00000  -0.01049  -0.00000  -0.16505
-12.82137   0.00000  -0.11794  -0.00000  -0.27087   0.00000  -0.61881   0.00000  -0.00334  -0.00000  -0.02466  -0.00000  -0.07842  -0.00000  -0.03329  -0.00000  -0.08727  -0.00000  -0.00477  -0.00000  -0.00032   0.00000  -0.01049  -0.00000  -0.16505
-12.77129   0.00000  -0.11794   0.00000  -0.27087   0.00000  -0.61881   0.00000  -0.00334   0.00000  -0.02466   0.00000  -0.07842   0.00000  -0.03329   0.00000  -0.08727   0.00000  -0.00477   0.00000  -0.00032   0.00000  -0.01049   0.00000  -0.16505
-12.72120   0.00000  -0.11794   0.00000  -0.27087   0.00000  -0.61881   0.00000  -0.00334   0.00000  -0.02466   0.00000  -0.07842   0.00000  -0.03329   0.00000  -0.08727   0.00000  -0.00477   0.00000  -0.00032   0.00000  -0.01049   0.00000  -0.16505
-12.67112   0.00000  -0.11794   0.00000  -0.27087   0.00000  -0.61881   0.00000  -0.00334   0.00000  -0.02466   0.00000  -0.07842   0.00000  -0.03329   0.00000  -0.08727   0.00000  -0.00477   0.00000  -0.00032   0.00000  -0.01049   0.00000  -0.16505
-12.62104   0.00000  -0.11794   0.00000  -0.27087   0.00000  -0.61881   0.00000  -0.00334   0.00000  -0.02466   0.00000  -0.07842   0.00000  -0.03329   0.00000  -0.08727   0.00000  -0.00477   0.00000  -0.00032   0.00000  -0.01049   0.00000  -0.16505
-12.57095   0.00000  -0.11794   0.00000  -0.27087   0.00000  -0.61881   0.00000  -0.00334   0.00000  -0.02466   0.00000  -0.07842   0.00000  -0.03329   0.00000  -0.08727   0.00000  -0.00477   0.00000  -0.00032   0.00000  -0.01049   0.00000  -0.16505
-12.52087   0.00000  -0.11794   0.00000  -0.27087   0.00000  -0.61881   0.00000  -0.00334   0.00000  -0.02466   0.00000  -0.07842   0.00000  -0.03329   0.00000  -0.08727   0.00000  -0.00477   0.00000  -0.00032   0.00000  -0.01049   0.00000  -0.16505
-12.47078   0.00000  -0.11794   0.00000  -0.27087   0.00000  -0.61881   0.00000  -0.00334   0.00000  -0.02466   0.00000  -0.07842   0.00000  -0.03329   0.00000  -0.08727   0.00000  -0.00477   0.00000  -0.00032   0.00000  -0.01049   0.00000  -0.16505
-12.42070   0.00000  -0.11794   0.00000  -0.27087   0.00000  -0.61881   0.00000  -0.00334   0.00000  -0.02466   0.00000  -0.07842   0.00000  -0.03329   0.00000  -0.08727   0.00000  -0.00477   0.00000  -0.00032   0.00000  -0.01049   0.00000  -0.16505
-12.37062   0.00000  -0.11794   0.00000  -0.27087   0.00000  -0.61881   0.00000  -0.00334   0.00000  -0.02466   0.00000  -0.07842   0.00000  -0.03329   0.00000  -0.08727   0.00000  -0.00477   0.00000  -0.00032   0.00000  -0.01049   0.00000  -0.16505
-12.32053   0.00000  -0.11794   0.00000  -0.27087   0.00000  -0.61881   0.00000  -0.00334   0.00000  -0.02466   0.00000  -0.07842   0.00000  -0.03329   0.00000  -0.08727   0.00000  -0.00477   0.00000  -0.00032   0.00000  -0.01049   0.00000  -0.16505
-12.27045   0.00000  -0.11794   0.00000  -0.27087   0.00000  -0.61881   0.00000  -0.00334   0.00000  -0.02466   0.00000  -0.07842   0.00000  -0.03329   0.00000  -0.08727   0.00000  -0.00477   0.00000  -0.00032   0.00000  -0.01049   0.00000  -0.16505
-12.22037   0.00000  -0.11794   0.00000  -0.27087   0.00000  -0.61881   0.00000  -0.00334   0.00000  -0.02466   0.00000  -0.07842   0.00000  -0.03329   0.00000  -0.08727   0.00000  -0.00477   0.00000  -0.00032   0.00000  -0.01049   0.00000  -0.16505
-12.17028   0.00000  -0.11794   0.00000  -0.27087   0.00000  -0.61881   0.00000  -0.00334   0.00000  -0.02466   0.00000  -0.07842   0.00000  -0.03329   0.00000  -0.08727   0.00000  -0.00477   0.00000  -0.00032   0.00000  -0.01049   0.00000  -0.16505
-12.12020   0.00000  -0.11794   0.00000  -0.27087   0.00000  -0.61881   0.00000  -0.00334   0.00000  -0.02466   0.00000  -0.07842   0.00000  -0.03329   0.00000  -0.08727   0.00000  -0.00477   0.00000  -0.00032   0.00000  -0.01049   0.00000  -0.16505
-12.07012   0.00000  -0.11794   0.00000  -0.27087   0.00000  -0.61881   0.00000  -0.00334   0.00000  -0.02466   0.00000  -0.07842   0.00000  -0.03329   0.00000  -0.08727   0.00000  -0.00477   0.00000  -0.00032   0.00000  -0.01049   0.00000  -0.16505
-12.02003   0.00000  -0.11794   0.00000  -0.27087   0.00000  -0.61881   0.00000  -0.00334   0.00000  -0.02466   0.00000  -0.07842   0.00000  -0.03329   0.00000  -0.08727   0.00000  -0.00477   0.00000  -0.00032   0.00000  -0.01049   0.00000  -0.16505
-11.96995   0.00000  -0.11794   0.00000  -0.27087   0.00000  -0.61881   0.00000  -0.00334   0.00000  -0.02466   0.00000  -0.07842   0.00000  -0.03329   0.00000  -0.08727   0.00000  -0.00477   0.00000  -0.00032   0.00000  -0.01049   0.00000  -0.16505
-11.91987   0.00000  -0.11794   0.00000  -0.27087   0.00000  -0.61881   0.00000  -0.00334   0.00000  -0.02466   0.00000  -0.07842   0.00000  -0.03329   0.00000  -0.08727   0.00000  -0.00477   0.00000  -0.00032   0.00000  -0.01049   0.00000  -0.16505
-11.86978   0.00000  -0.11794   0.00000  -0.27087   0.00000  -0.61881   0.00000  -0.00334   0.00000  -0.02466   0.00000  -0.07842   0.00000  -0.03329   0.00000  -0.08727   0.00000  -0.00477   0.00000  -0.00032   0.00000  -0.01049   0.00000  -0.16505
-11.81970   0.00000  -0.11794   0.00000  -0.27087   0.00000  -0.61881   0.00000  -0.00334   0.00000  -0.02466   0.00000  -0.07842   0.00000  -0.03329   0.00000  -0.08727   0.00000  -0.00477   0.00000  -0.00032   0.00000  -0.01049   0.00000  -0.16505
-11.76962   0.00000  -0.11794   0.00000  -0.27087   0.00000  -0.61881   0.00000  -0.00334   0.00000  -0.02466   0.00000  -0.07842   0.00000  -0.03329   0.00000  -0.08727   0.00000  -0.00477   0.00000  -0.00032   0.00000  -0.01049   0.00000  -0.16505
-11.71953   0.00000  -0.11794   0.00000  -0.27087   0.00000  -0.61881   0.00000  -0.00334   0.00000  -0.02466   0.00000  -0.07842   0.00000  -0.03329   0.00000  -0.08727   0.00000  -0.00477   0.00000  -0.00032   0.00000  -0.01049   0.00000  -0.16505
-11.66945   0.00000  -0.11794   0.00000  -0.27087   0.00000  -0.61881   0.00000  -0.00334   0.00000  -0.02466   0.00000  -0.07842   0.00000  -0.03329   0.00000  -0.08727   0.00000  -0.00477   0.00000  -0.00032   0.00000  -0.01049   0.00000  -0.16505
-11.61937   0.00000  -0.11794   0.00000  -0.27087   0.00000  -0.61881   0.00000  -0.00334   0.00000  -0.02466   0.00000  -0.07842   0.00000  -0.03329   0.00000  -0.08727   0.00000  -0.00477   0.00000  -0.00032   0.00000  -0.01049   0.00000  -0.16505
-11.56928   0.00000  -0.11794   0.00000  -0.27087   0.00000  -0.61881   0.00000  -0.00334   0.00000  -0.02466   0.00000  -0.07842   0.00000  -0.03329   0.00000  -0.08727   0.00000  -0.00477   0.00000  -0.00032   0.00000  -0.01049   0.00000  -0.16505
-11.51920   0.00000  -0.11794   0.00000  -0.27087   0.00000  -0.61881   0.00000  -0.00334   0.00000  -0.02466   0.00000  -0.07842   0.00000  -0.03329   0.00000  -0.08727   0.00000  -0.00477   0.00000  -0.00032   0.00000  -0.01049   0.00000  -0.16505
-11.46912   0.00000  -0.11794   0.00000  -0.27087   0.00000  -0.61881   0.00000  -0.00334   0.00000  -0.02466   0.00000  -0.07842   0.00000  -0.03329   0.00000  -0.08727   0.00000  -0.00477   0.00000  -0.00032   0.00000  -0.01049   0.00000  -0.16505
-11.41903   0.00000  -0.11794   0.00000  -0.27087   0.00000  -0.61881   0.00000  -0.00334   0.00000  -0.02466   0.00000  -0.07842   0.00000  -0.03329   0.00000  -0.08727   0.00000  -0.00477   0.00000  -0.00032   0.00000  -0.01049   0.00000  -0.16505
-11.36895   0.00000  -0.11794   0.00000  -0.27087   0.00000  -0.61881   0.00000  -0.00334   0.00000  -0.02466   0.00000  -0.07842   0.00000  -0.03329   0.00000  -0.08727   0.00000  -0.00477   0.00000  -0.00032   0.00000  -0.01049   0.00000  -0.16505
-11.31886   0.00000  -0.11794   0.00000  -0.27087   0.00000  -0.61881   0.00000  -0.00334   0.00000  -0.02466   0.00000  -0.07842   0.00000  -0.03329   0.00000  -0.08727   0.00000  -0.00477   0.00000  -0.00032   0.00000  -0.01049   0.00000  -0.16505
-11.26878   0.00000  -0.11794   0.00000  -0.27087   0.00000  -0.61881   0.00000  -0.00334   0.00000  -0.02466   0.00000  -0.07842   0.00000  -0.03329   0.00000  -0.08727   0.00000  -0.00477   0.00000  -0.00032   0.00000  -0.01049   0.00000  -0.16505
-11.21870   0.00000  -0.11794   0.00000  -0.27087   0.00000  -0.61881   0.00000  -0.00334   0.00000  -0.02466   0.00000  -0.07842   0.00000  -0.03329   0.00000  -0.08727   0.00000  -0.00477   0.00000  -0.00032   0.00000  -0.01049   0.00000  -0.16505
-11.16861   0.00000  -0.11794   0.00000  -0.27087   0.00000  -0.61881   0.00000  -0.00334   0.00000  -0.02466   0.00000  -0.07842   0.00000  -0.03329   0.00000  -0.08727   0.00000  -0.00477   0.00000  -0.00032   0.00000  -0.01049   0.00000  -0.16505
-11.11853   0.00000  -0.11794   0.00000  -0.27087   0.00000  -0.61881   0.00000  -0.00334   0.00000  -0.02466   0.00000  -0.07842   0.00000  -0.03329   0.00000  -0.08727   0.00000  -0.00477   0.00000  -0.00032   0.00000  -0.01049   0.00000  -0.16505
-11.06845   0.00000  -0.11794   0.00000  -0.27087   0.00000  -0.61881   0.00000  -0.00334   0.00000  -0.02466   0.00000  -0.07842   0.00000  -0.03329   0.00000  -0.08727   0.00000  -0.00477   0.00000  -0.00032   0.00000  -0.01049   0.00000  -0.16505
-11.01836   0.00000  -0.11794   0.00000  -0.27087   0.00000  -0.61881   0.00000  -0.00334   0.00000  -0.02466   0.00000  -0.07842   0.00000  -0.03329   0.00000  -0.08727   0.00000  -0.00477   0.00000  -0.00032   0.00000  -0.01049   0.00000  -0.16505
-10.96828   0.00000  -0.11794   0.00000  -0.27087   0.00000  -0.61881   0.00000  -0.00334   0.00000  -0.02466   0.00000  -0.07842   0.00000  -0.03329   0.00000  -0.08727   0.00000  -0.00477   0.00000  -0.00032   0.00000  -0.01049   0.00000  -0.16505
-10.91820   0.00000  -0.11794   0.00000  -0.27087   0.00000  -0.61881   0.00000  -0.00334   0.00000  -0.02466   0.00000  -0.07842   0.00000  -0.03329   0.00000  -0.08727   0.00000  -0.00477   0.00000  -0.00032   0.00000  -0.01049   0.00000  -0.16505
-10.86811   0.00000  -0.11794   0.00000  -0.27087   0.00000  -0.61881   0.00000  -0.00334   0.00000  -0.02466   0.00000  -0.07842   0.00000  -0.03329   0.00000  -0.08727   0.00000  -0.00477   0.00000  -0.00032   0.00000  -0.01049   0.00000  -0.16505
-10.81803   0.00000  -0.11794   0.00000  -0.27087   0.00000  -0.61881   0.00000  -0.00334   0.00000  -0.02466   0.00000  -0.07842   0.00000  -0.03329   0.00000  -0.08727   0.00000  -0.00477   0.00000  -0.00032   0.00000  -0.01049   0.00000  -0.16505
-10.76795  -0.00000  -0.11794  -0.00000  -0.27087   0.00000  -0.61881   0.00000  -0.00334   0.00000  -0.02466  -0.00000  -0.07842  -0.00000  -0.03329  -0.00000  -0.08727   0.00000  -0.00477   0.00000  -0.00032  -0.00000  -0.01049  -0.00000  -0.16505
-10.71786  -0.00000  -0.11794  -0.00000  -0.27087   0.00000  -0.61881  -0.00000  -0.00334  -0.00000  -0.02466  -0.00000  -0.07842  -0.00000  -0.03329  -0.00000  -0.08727  -0.00000  -0.00477   0.00000  -0.00032  -0.00000  -0.01049  -0.00000  -0.16505
-10.66778  -0.00000  -0.11794   0.00000  -0.27087   0.00000  -0.61881  -0.00000  -0.00334  -0.00000  -0.02466  -0.00000  -0.07842  -0.00000  -0.03329  -0.00000  -0.08727  -0.00000  -0.00477   0.00000  -0.00032  -0.00000  -0.01049  -0.00000  -0.16505
-10.61770  -0.00000  -0.11794   0.00000  -0.27087   0.00000  -0.61881  -0.00000  -0.00334  -0.00000  -0.02466  -0.00000  -0.07842  -0.00000  -0.03329  -0.00000  -0.08727  -0.00000  -0.00477   0.00000  -0.00032  -0.00000  -0.01049  -0.00000  -0.16505
-10.56761  -0.00000  -0.11794   0.00000  -0.27087   0.00000  -0.61881  -0.00000  -0.00334  -0.00000  -0.02466  -0.00000  -0.07842  -0.00000  -0.03329  -0.00000  -0.08727  -0.00000  -0.00477   0.00000  -0.00032  -0.00000  -0.01049  -0.00000  -0.16505
-10.51753  -0.00000  -0.11794   0.00000  -0.27087   0.00000  -0.61881  -0.00000  -0.00334  -0.00000  -0.02466  -0.00000  -0.07842  -0.00000  -0.03329  -0.00000  -0.08727  -0.00000  -0.00477   0.00000  -0.00032  -0.00000  -0.01049  -0.00000  -0.16505
-10.46745  -0.00000  -0.11794   0.00000  -0.27087   0.00000  -0.61881  -0.00000  -0.00334  -0.00000  -0.02466  -0.00000  -0.07842  -0.00000  -0.03329  -0.00000  -0.08727  -0.00000  -0.00477   0.00000  -0.00032  -0.00000  -0.01049  -0.00000  -0.16505
-10.41736  -0.00000  -0.11794   0.00000  -0.27087   0.00000  -0.61881  -0.00000  -0.00334  -0.00000  -0.02466  -0.00000  -0.07842  -0.00000  -0.03329  -0.00000  -0.08727  -0.00000  -0.00477   0.00000  -0.00032  -0.00000  -0.01049  -0.00000  -0.16505
-10.36728  -0.00000  -0.11794   0.00000  -0.27087   0.00000  -0.61881  -0.00000  -0.00334  -0.00000  -0.02466  -0.00000  -0.07842  -0.00000  -0.03329  -0.00000  -0.08727  -0.00000  -0.00477   0.00000  -0.00032  -0.00000  -0.01049  -0.00000  -0.16505
-10.31720  -0.00000  -0.11794   0.00000  -0.27087   0.00000  -0.61881  -0.00000  -0.00334  -0.00000  -0.02466  -0.00000  -0.07842  -0.00000  -0.03329  -0.00000  -0.08727  -0.00000  -0.00477   0.00000  -0.00032  -0.00000  -0.01049  -0.00000  -0.16505
-10.26711  -0.00000  -0.11794   0.00000  -0.27087   0.00000  -0.61881  -0.00000  -0.00334  -0.00000  -0.02466  -0.00000  -0.07842  -0.00000  -0.03329  -0.00000  -0.08727  -0.00000  -0.00477   0.00000  -0.00032  -0.00000  -0.01049  -0.00000  -0.16505
-10.21703  -0.00000  -0.11794   0.00000  -0.27087   0.00000  -0.61881  -0.00000  -0.00334  -0.00000  -0.02466  -0.00000  -0.07842  -0.00000  -0.03329  -0.00000  -0.08727  -0.00000  -0.00477   0.00000  -0.00032  -0.00000  -0.01049  -0.00000  -0.16505
-10.16694  -0.00000  -0.11794   0.00000  -0.27087   0.00000  -0.61881  -0.00000  -0.00334  -0.00000  -0.02466  -0.00000  -0.07842  -0.00000  -0.03329  -0.00000  -0.08727  -0.00000  -0.00477   0.00000  -0.00032  -0.00001  -0.01049  -0.00000  -0.16505
-10.11686  -0.00001  -0.11794   0.00000  -0.27087   0.00000  -0.61881  -0.00000  -0.00334  -0.00000  -0.02466  -0.00000  -0.07842  -0.00001  -0.03329  -0.00001  -0.08727  -0.00001  -0.00477   0.00000  -0.00032  -0.00005  -0.01049  -0.00001  -0.16505
-10.06678  -0.00003  -0.11794   0.00001  -0.27087   0.00002  -0.61880  -0.00000  -0.00334  -0.00000  -0.02466  -0.00001  -0.07842  -0.00002  -0.03329  -0.00005  -0.08728  -0.00002  -0.00477   0.00001  -0.00032  -0.00018  -0.01050  -0.00005  -0.16506
-10.01669  -0.00010  -0.11794   0.00002  -0.27086   0.00006  -0.61880  -0.00001  -0.00334  -0.00002  -0.02466  -0.00003  -0.07842  -0.00008  -0.03330  -0.00017  -0.08729  -0.00008  -0.00477   0.00003  -0.00032  -0.00063  -0.01053  -0.00016  -0.16506
 -9.96661  -0.00030  -0.11796   0.00007  -0.27086   0.00017  -0.61879  -0.00003  -0.00334  -0.00005  -0.02466  -0.00009  -0.07842  -0.00024  -0.03331  -0.00054  -0.08731  -0.00025  -0.00478   0.00008  -0.00032  -0.00197  -0.01063  -0.00048  -0.16509
 -9.91653  -0.00084  -0.11800   0.00019  -0.27085   0.00048  -0.61877  -0.00009  -0.00335  -0.00013  -0.02467  -0.00024  -0.07843  -0.00066  -0.03334  -0.00149  -0.08739  -0.00071  -0.00482   0.00022  -0.00031  -0.00555  -0.01091  -0.00127  -0.16515
 -9.86644  -0.00210  -0.11810   0.00047  -0.27083   0.00119  -0.61871  -0.00021  -0.00336  -0.00031  -0.02469  -0.00059  -0.07846  -0.00160  -0.03342  -0.00368  -0.08757  -0.00179  -0.00491   0.00053  -0.00028  -0.01403  -0.01161  -0.00304  -0.16530
 -9.81636  -0.00470  -0.11834   0.00102  -0.27078   0.00264  -0.61858  -0.00044  -0.00338  -0.00066  -0.02472  -0.00130  -0.07853  -0.00348  -0.03360  -0.00816  -0.08798  -0.00405  -0.00511   0.00118  -0.00022  -0.03196  -0.01321  -0.00649  -0.16563
 -9.76628  -0.00950  -0.11882   0.00199  -0.27068   0.00528  -0.61831  -0.00083  -0.00342  -0.00129  -0.02478  -0.00257  -0.07866  -0.00679  -0.03394  -0.01625  -0.08879  -0.00828  -0.00553   0.00233  -0.00010  -0.06569  -0.01650  -0.01244  -0.16625
 -9.71619  -0.01740  -0.11969   0.00349  -0.27050   0.00954  -0.61784  -0.00141  -0.00349  -0.00227  -0.02490  -0.00458  -0.07889  -0.01195  -0.03454  -0.02921  -0.09026  -0.01530  -0.00629   0.00414   0.00010  -0.12233  -0.02263  -0.02152  -0.16733
 -9.66611  -0.02896  -0.12114   0.00554  -0.27023   0.01558  -0.61706  -0.00212  -0.00360  -0.00361  -0.02508  -0.00736  -0.07925  -0.01901  -0.03549  -0.04746  -0.09263  -0.02566  -0.00758   0.00662   0.00044  -0.20728  -0.03301  -0.03380  -0.16902
 -9.61603  -0.04409  -0.12335   0.00798  -0.26983   0.02310  -0.61590  -0.00286  -0.00374  -0.00524  -0.02534  -0.01070  -0.07979  -0.02749  -0.03687  -0.07002  -0.09614  -0.03923  -0.00954   0.00949   0.00091  -0.32142  -0.04911  -0.04862  -0.17146
 -9.56594  -0.06183  -0.12644   0.01049  -0.26930   0.03128  -0.61433  -0.00346  -0.00392  -0.00696  -0.02569  -0.01412  -0.08050  -0.03632  -0.03868  -0.09423  -0.10086  -0.05500  -0.01230   0.01221   0.00152  -0.45930  -0.07211  -0.06476  -0.17470
 -9.51586  -0.08059  -0.13048   0.01267  -0.26867   0.03888  -0.61238  -0.00375  -0.00410  -0.00856  -0.02612  -0.01696  -0.08135  -0.04416  -0.04090  -0.11629  -0.10668  -0.07125  -0.01587   0.01401   0.00222  -0.61001  -0.10266  -0.08104  -0.17876
 -9.46578  -0.09860  -0.13542   0.01417  -0.26796   0.04467  -0.61015  -0.00362  -0.00428  -0.00984  -0.02661  -0.01858  -0.08228  -0.04982  -0.04339  -0.13243  -0.11332  -0.08601  -0.02017   0.01415   0.00293  -0.76049  -0.14075  -0.09681  -0.18361
 -9.41569  -0.11449  -0.14115   0.01481  -0.26721   0.04781  -0.60775  -0.00309  -0.00444  -0.01068  -0.02715  -0.01856  -0.08321  -0.05263  -0.04603  -0.14013  -0.12034  -0.09771  -0.02507   0.01215   0.00354  -0.89924  -0.18579  -0.11216  -0.18922
 -9.36561  -0.12741  -0.14753   0.01463  -0.26648   0.04806  -0.60535  -0.00226  -0.00455  -0.01105  -0.02770  -0.01684  -0.08405  -0.05254  -0.04866  -0.13876  -0.12728  -0.10547  -0.03035   0.00799   0.00394  -1.01792  -0.23677  -0.12738  -0.19560
 -9.31553  -0.13680  -0.15438   0.01376  -0.26579   0.04572  -0.60306  -0.00133  -0.00462  -0.01099  -0.02825  -0.01373  -0.08474  -0.04999  -0.05116  -0.12940  -0.13377  -0.10902  -0.03581   0.00213   0.00405  -1.10976  -0.29235  -0.14218  -0.20273
 -9.26544  -0.14196  -0.16149   0.01243  -0.26517   0.04143  -0.60098  -0.00045  -0.00464  -0.01053  -0.02878  -0.00978  -0.08523  -0.04558  -0.05345  -0.11419  -0.13948  -0.10834  -0.04124  -0.00458   0.00382  -1.16680  -0.35078  -0.15513  -0.21049
 -9.21536  -0.14195  -0.16860   0.01081  -0.26463   0.03589  -0.59918   0.00023  -0.00463  -0.00969  -0.02926  -0.00568  -0.08551  -0.03991  -0.05544  -0.09560  -0.14427  -0.10341  -0.04642  -0.01105   0.00326  -1.17922  -0.40984  -0.16386  -0.21870