   0.38801E+00   0.49625E-03   0.49625E-03   0.14801E-03   0.14876E-03   0.14876E-03   0.85088E-03   0.85088E-03   0.85088E-03
   0.77601E+00   0.13750E-02   0.13750E-02   0.41210E-03   0.41722E-03   0.41722E-03   0.23545E-02   0.23545E-02   0.23545E-02
   0.11640E+01   0.36859E-02   0.36859E-02   0.11116E-02   0.11281E-02   0.11281E-02   0.63058E-02   0.63058E-02   0.63058E-02
   0.15520E+01   0.42613E-02   0.42613E-02   0.12619E-02   0.12676E-02   0.12676E-02   0.74786E-02   0.74786E-02   0.74786E-02
   0.19400E+01   0.85568E-02   0.85568E-02   0.23734E-02   0.25269E-02   0.25269E-02   0.15303E-01   0.15303E-01   0.15303E-01
   0.23280E+01   0.87237E-02   0.87237E-02   0.23595E-02   0.24584E-02   0.24584E-02   0.16086E-01   0.16086E-01   0.16086E-01
   0.27160E+01   0.16494E-01   0.16494E-01   0.39699E-02   0.45492E-02   0.45492E-02   0.31439E-01   0.31439E-01   0.31439E-01
   0.31041E+01   0.17733E-01   0.17733E-01   0.41574E-02   0.46390E-02   0.46390E-02   0.34783E-01   0.34783E-01   0.34783E-01
   0.34921E+01   0.25958E-01   0.25958E-01   0.51871E-02   0.64456E-02   0.64456E-02   0.53246E-01   0.53246E-01   0.53246E-01
   0.38801E+01   0.33631E-01   0.33631E-01   0.61702E-02   0.77974E-02   0.77974E-02   0.71718E-01   0.71718E-01   0.71718E-01
   0.42681E+01   0.44673E-01   0.44673E-01   0.72473E-02   0.95070E-02   0.95070E-02   0.99998E-01   0.99998E-01   0.99998E-01
   0.46561E+01   0.63962E-01   0.63962E-01   0.89568E-02   0.12198E-01   0.12198E-01   0.15494E+00   0.15494E+00   0.15494E+00
   0.50441E+01   0.77654E-01   0.77654E-01   0.10378E-01   0.13443E-01   0.13443E-01   0.21349E+00   0.21349E+00   0.21349E+00
   0.54321E+01   0.65541E-01   0.65541E-01   0.12502E-01   0.10444E-01   0.10444E-01   0.19865E+00   0.19865E+00   0.19865E+00
   0.58201E+01   0.66797E-01   0.66797E-01   0.34497E-01   0.10866E-01   0.10866E-01   0.20960E+00   0.20960E+00   0.20960E+00
   0.62081E+01   0.56086E-01   0.56086E-01   0.32459E-01   0.99275E-02   0.99275E-02   0.21979E+00   0.21979E+00   0.21979E+00
   0.65961E+01   0.45619E-01   0.45619E-01   0.37921E-01   0.95463E-02   0.95463E-02   0.22212E+00   0.22212E+00   0.22212E+00
   0.69841E+01   0.86174E-01   0.86174E-01   0.11357E+00   0.31016E-01   0.31016E-01   0.94672E+00   0.94672E+00   0.94672E+00
   0.73721E+01   0.68018E-01   0.68018E-01   0.12842E+00   0.19628E-01   0.19628E-01   0.35962E+00   0.35962E+00   0.35962E+00
   0.77601E+01   0.76260E-01   0.76260E-01   0.16214E+00   0.20742E-01   0.20742E-01   0.34530E+00   0.34530E+00   0.34530E+00
   0.81481E+01   0.66912E-01   0.66912E-01   0.32979E+00   0.18311E-01   0.18311E-01   0.26793E+00   0.26793E+00   0.26793E+00
   0.85361E+01   0.11555E+00   0.11555E+00   0.31448E+00   0.12715E-01   0.12715E-01   0.48953E+00   0.48953E+00   0.48953E+00
   0.89241E+01   0.17007E+00   0.17007E+00   0.33958E+00   0.13942E-01   0.13942E-01   0.33751E+00   0.33751E+00   0.33751E+00
   0.93122E+01   0.99939E-01   0.99939E-01   0.19102E+00   0.99143E-02   0.99143E-02   0.18945E+00   0.18945E+00   0.18945E+00
   0.97002E+01   0.23995E+00   0.23995E+00   0.14536E+00   0.21715E-01   0.21715E-01   0.53905E+00   0.53905E+00   0.53905E+00
   0.10088E+02   0.20759E+00   0.20759E+00   0.13984E+00   0.19795E-01   0.19795E-01   0.44407E+00   0.44407E+00   0.44407E+00
   0.10476E+02   0.14727E+00   0.14727E+00   0.14008E+00   0.12377E-01   0.12377E-01   0.26517E+00   0.26517E+00   0.26517E+00
   0.10864E+02   0.11715E+00   0.11715E+00   0.13626E+00   0.82204E-02   0.82204E-02   0.19477E+00   0.19477E+00   0.19477E+00
   0.11252E+02   0.48178E-01   0.48178E-01   0.68257E-01   0.42408E-02   0.42408E-02   0.66734E-01   0.66734E-01   0.66734E-01
   0.11640E+02   0.12496E-01   0.12496E-01   0.45054E-01   0.20398E-02   0.20398E-02   0.13729E-01   0.13729E-01   0.13729E-01
   0.12028E+02   0.46450E-02   0.46450E-02   0.73336E-01   0.71109E-02   0.71109E-02   0.26607E-02   0.26607E-02   0.26607E-02
   0.12416E+02   0.12012E-01   0.12012E-01   0.38103E+00   0.46106E-01   0.46106E-01   0.63084E-02   0.63084E-02   0.63084E-02
   0.12804E+02   0.19209E-01   0.19209E-01   0.85811E+00   0.10125E+00   0.10125E+00   0.16840E-01   0.16840E-01   0.16840E-01
   0.13192E+02   0.16210E-01   0.16210E-01   0.95910E+00   0.10692E+00   0.10692E+00   0.19595E-01   0.19595E-01   0.19595E-01
   0.13580E+02   0.13553E-01   0.13553E-01   0.10248E+01   0.90495E-01   0.90495E-01   0.23028E-01   0.23028E-01   0.23028E-01
   0.13968E+02   0.80200E-02   0.80200E-02   0.57142E+00   0.44019E-01   0.44019E-01   0.84969E-02   0.84969E-02   0.84969E-02
   0.14356E+02   0.22202E-02   0.22202E-02   0.21900E+00   0.13291E-01   0.13291E-01   0.27147E-02   0.27147E-02   0.27147E-02
   0.14744E+02   0.53620E-04   0.53620E-04   0.33092E-02   0.11293E-03   0.11293E-03   0.42091E-04   0.42091E-04   0.42091E-04
   0.15132E+02   0.10511E-04   0.10511E-04   0.43298E-03   0.94022E-05   0.94022E-05   0.57160E-05   0.57160E-05   0.57160E-05
   0.15520E+02   0.14563E-03   0.14563E-03   0.11227E-03   0.24803E-03   0.24803E-03   0.67764E-05   0.67764E-05   0.67764E-05
   0.15908E+02   0.18043E-02   0.18043E-02   0.62317E-03   0.31340E-02   0.31340E-02   0.71718E-04   0.71718E-04   0.71718E-04
   0.16296E+02   0.16207E-01   0.16207E-01   0.40615E-02   0.28667E-01   0.28667E-01   0.52954E-03   0.52954E-03   0.52954E-03
   0.16684E+02   0.26303E-01   0.26303E-01   0.10370E-01   0.49398E-01   0.49398E-01   0.14569E-02   0.14569E-02   0.14569E-02
   0.17072E+02   0.52078E-01   0.52078E-01   0.22258E-01   0.10091E+00   0.10091E+00   0.35446E-02   0.35446E-02   0.35446E-02
   0.17460E+02   0.14817E+00   0.14817E+00   0.70874E-01   0.51889E+00   0.51889E+00   0.10457E-01   0.10457E-01   0.10457E-01
   0.17848E+02   0.16410E+00   0.16410E+00   0.11933E+00   0.48069E+00   0.48069E+00   0.12659E-01   0.12659E-01   0.12659E-01
   0.18236E+02   0.11976E+00   0.11976E+00   0.12309E+00   0.85880E+00   0.85880E+00   0.28103E-01   0.28103E-01   0.28103E-01
   0.18624E+02   0.57988E-01   0.57988E-01   0.88682E-01   0.53680E+00   0.53680E+00   0.20357E-01   0.20357E-01   0.20357E-01
   0.19012E+02   0.47811E-01   0.47811E-01   0.84735E-01   0.40043E+00   0.40043E+00   0.17102E-01   0.17102E-01   0.17102E-01
   0.19400E+02   0.55483E-01   0.55483E-01   0.78733E-01   0.29926E+00   0.29926E+00   0.13369E-01   0.13369E-01   0.13369E-01
   0.19788E+02   0.82501E-01   0.82501E-01   0.96716E-01   0.40876E+00   0.40876E+00   0.20551E-01   0.20551E-01   0.20551E-01
   0.20176E+02   0.11525E+00   0.11525E+00   0.16761E+00   0.55024E+00   0.55024E+00   0.26359E-01   0.26359E-01   0.26359E-01
   0.20564E+02   0.57660E-01   0.57660E-01   0.52142E-01   0.20891E+00   0.20891E+00   0.69765E-02   0.69765E-02   0.69765E-02
   0.20952E+02   0.44220E-01   0.44220E-01   0.30476E-01   0.19220E+00   0.19220E+00   0.19198E-02   0.19198E-02   0.19198E-02
   0.21340E+02   0.38445E-01   0.38445E-01   0.16541E-01   0.70951E-01   0.70951E-01   0.98285E-03   0.98285E-03   0.98285E-03
   0.21728E+02   0.47608E-01   0.47608E-01   0.13967E-01   0.59549E-01   0.59549E-01   0.81860E-03   0.81860E-03   0.81860E-03
   0.22116E+02   0.25934E+00   0.25934E+00   0.19586E-01   0.18899E+00   0.18899E+00   0.30933E-02   0.30933E-02   0.30933E-02
   0.22504E+02   0.41579E+00   0.41579E+00   0.37174E-01   0.31724E+00   0.31724E+00   0.96141E-02   0.96141E-02   0.96141E-02
   0.22892E+02   0.30019E+00   0.30019E+00   0.39694E-01   0.23324E+00   0.23324E+00   0.10178E-01   0.10178E-01   0.10178E-01
   0.23280E+02   0.30125E+00   0.30125E+00   0.34617E-01   0.27879E+00   0.27879E+00   0.13819E-01   0.13819E-01   0.13819E-01
   0.23668E+02   0.13523E+00   0.13523E+00   0.92461E-02   0.22853E+00   0.22853E+00   0.94254E-02   0.94254E-02   0.94254E-02
   0.24056E+02   0.12109E+00   0.12109E+00   0.47786E-02   0.18620E+00   0.18620E+00   0.13338E-01   0.13338E-01   0.13338E-01
   0.24444E+02   0.10168E+00   0.10168E+00   0.72966E-02   0.32822E+00   0.32822E+00   0.18739E-01   0.18739E-01   0.18739E-01
   0.24832E+02   0.60328E-01   0.60328E-01   0.33913E-02   0.59557E-01   0.59557E-01   0.10017E-01   0.10017E-01   0.10017E-01
   0.25220E+02   0.66642E-01   0.66642E-01   0.54478E-02   0.67146E-01   0.67146E-01   0.14031E-01   0.14031E-01   0.14031E-01
   0.25608E+02   0.12527E+00   0.12527E+00   0.11058E-01   0.11861E+00   0.11861E+00   0.30059E-01   0.30059E-01   0.30059E-01
   0.25996E+02   0.10025E+00   0.10025E+00   0.73417E-02   0.62830E-01   0.62830E-01   0.23528E-01   0.23528E-01   0.23528E-01
   0.26384E+02   0.10078E+00   0.10078E+00   0.59266E-02   0.46661E-01   0.46661E-01   0.25751E-01   0.25751E-01   0.25751E-01
   0.26772E+02   0.18384E+00   0.18384E+00   0.44240E-02   0.39897E-01   0.39897E-01   0.96602E-01   0.96602E-01   0.96602E-01
   0.27160E+02   0.50466E+00   0.50466E+00   0.30998E-02   0.54321E-01   0.54321E-01   0.36321E+00   0.36321E+00   0.36321E+00
   0.27548E+02   0.67532E-02   0.67532E-02   0.16030E-03   0.21439E-02   0.21439E-02   0.36022E-02   0.36022E-02   0.36022E-02
   0.27936E+02   0.30736E-04   0.30736E-04   0.12821E-05   0.16046E-04   0.16046E-04   0.11794E-04   0.11794E-04   0.11794E-04
   0.28324E+02   0.00000E+00   0.00000E+00   0.00000E+00   0.00000E+00   0.00000E+00   0.00000E+00   0.00000E+00   0.00000E+00
   0.28712E+02   0.26569E-03   0.26569E-03   0.15361E-06   0.13669E-04   0.13669E-04   0.19151E-04   0.19151E-04   0.19151E-04
   0.29100E+02   0.51612E-02   0.51612E-02   0.23446E-05   0.25843E-03   0.25843E-03   0.30809E-03   0.30809E-03   0.30809E-03
   0.29488E+02   0.26535E-01   0.26535E-01   0.17006E-04   0.16335E-02   0.16335E-02   0.18195E-02   0.18195E-02   0.18195E-02
   0.29876E+02   0.49354E-01   0.49354E-01   0.36829E-04   0.37533E-02   0.37533E-02   0.47356E-02   0.47356E-02   0.47356E-02
   0.30264E+02   0.75925E-01   0.75925E-01   0.89448E-04   0.54168E-02   0.54168E-02   0.10948E-01   0.10948E-01   0.10948E-01
   0.30652E+02   0.15798E+00   0.15798E+00   0.32059E-03   0.13988E-01   0.13988E-01   0.26924E-01   0.26924E-01   0.26924E-01
   0.31041E+02   0.11826E+00   0.11826E+00   0.15036E-03   0.58596E-02   0.58596E-02   0.32073E-01   0.32073E-01   0.32073E-01
   0.31429E+02   0.14141E+00   0.14141E+00   0.25982E-03   0.60346E-02   0.60346E-02   0.44565E-01   0.44565E-01   0.44565E-01
   0.31817E+02   0.21009E+00   0.21009E+00   0.45359E-03   0.82181E-02   0.82181E-02   0.73050E-01   0.73050E-01   0.73050E-01
   0.32205E+02   0.93276E-01   0.93276E-01   0.24552E-03   0.34510E-02   0.34510E-02   0.35439E-01   0.35439E-01   0.35439E-01
   0.32593E+02   0.41716E-01   0.41716E-01   0.13162E-03   0.14528E-02   0.14528E-02   0.17974E-01   0.17974E-01   0.17974E-01
   0.32981E+02   0.13140E+00   0.13140E+00   0.34868E-03   0.40031E-02   0.40031E-02   0.65489E-01   0.65489E-01   0.65489E-01
   0.33369E+02   0.16828E+00   0.16828E+00   0.69793E-03   0.44248E-02   0.44248E-02   0.86465E-01   0.86465E-01   0.86465E-01
   0.33757E+02   0.17751E+00   0.17751E+00   0.79482E-03   0.44014E-02   0.44014E-02   0.95182E-01   0.95182E-01   0.95182E-01
   0.34145E+02   0.10009E+00   0.10009E+00   0.29507E-03   0.22903E-02   0.22903E-02   0.55797E-01   0.55797E-01   0.55797E-01
   0.34533E+02   0.60576E-01   0.60576E-01   0.14109E-03   0.13313E-02   0.13313E-02   0.33840E-01   0.33840E-01   0.33840E-01
   0.34921E+02   0.41751E-01   0.41751E-01   0.79835E-04   0.84166E-03   0.84166E-03   0.23404E-01   0.23404E-01   0.23404E-01
   0.35309E+02   0.11277E-01   0.11277E-01   0.21600E-04   0.20147E-03   0.20147E-03   0.63166E-02   0.63166E-02   0.63166E-02
   0.35697E+02   0.43047E-05   0.43047E-05   0.10091E-07   0.10709E-06   0.10709E-06   0.23818E-05   0.23818E-05   0.23818E-05
   0.36085E+02   0.00000E+00   0.00000E+00   0.00000E+00   0.00000E+00   0.00000E+00   0.00000E+00   0.00000E+00   0.00000E+00
   0.36473E+02   0.00000E+00   0.00000E+00   0.00000E+00   0.00000E+00   0.00000E+00   0.00000E+00   0.00000E+00   0.00000E+00
   0.36861E+02   0.00000E+00   0.00000E+00   0.00000E+00   0.00000E+00   0.00000E+00   0.00000E+00   0.00000E+00   0.00000E+00
   0.37249E+02   0.00000E+00   0.00000E+00   0.00000E+00   0.00000E+00   0.00000E+00   0.00000E+00   0.00000E+00   0.00000E+00
   0.37637E+02   0.00000E+00   0.00000E+00   0.00000E+00   0.00000E+00   0.00000E+00   0.00000E+00   0.00000E+00   0.00000E+00
   0.38025E+02   0.00000E+00   0.00000E+00   0.00000E+00   0.00000E+00   0.00000E+00   0.00000E+00   0.00000E+00   0.00000E+00
   0.38413E+02   0.00000E+00   0.00000E+00   0.00000E+00   0.00000E+00   0.00000E+00   0.00000E+00   0.00000E+00   0.00000E+00
   0.38801E+02   0.00000E+00   0.00000E+00   0.00000E+00   0.00000E+00   0.00000E+00   0.00000E+00   0.00000E+00   0.00000E+00
