   0.38801E+00   0.22543E-03   0.22543E-03   0.71612E-04   0.71684E-04   0.71684E-04   0.36895E-03   0.36895E-03   0.36895E-03
   0.77601E+00   0.93646E-03   0.93646E-03   0.29773E-03   0.29687E-03   0.29687E-03   0.15430E-02   0.15430E-02   0.15430E-02
   0.11640E+01   0.20903E-02   0.20903E-02   0.65483E-03   0.65629E-03   0.65629E-03   0.34894E-02   0.34894E-02   0.34894E-02
   0.15520E+01   0.42064E-02   0.42064E-02   0.12870E-02   0.13045E-02   0.13045E-02   0.71607E-02   0.71607E-02   0.71607E-02
   0.19400E+01   0.67243E-02   0.67243E-02   0.19944E-02   0.20400E-02   0.20400E-02   0.11716E-01   0.11716E-01   0.11716E-01
   0.23280E+01   0.97695E-02   0.97695E-02   0.27618E-02   0.28805E-02   0.28805E-02   0.17518E-01   0.17518E-01   0.17518E-01
   0.27160E+01   0.14167E-01   0.14167E-01   0.37524E-02   0.40323E-02   0.40323E-02   0.26233E-01   0.26233E-01   0.26233E-01
   0.31041E+01   0.19831E-01   0.19831E-01   0.47781E-02   0.53883E-02   0.53883E-02   0.38149E-01   0.38149E-01   0.38149E-01
   0.34921E+01   0.27646E-01   0.27646E-01   0.56509E-02   0.70758E-02   0.70758E-02   0.55568E-01   0.55568E-01   0.55568E-01
   0.38801E+01   0.35068E-01   0.35068E-01   0.64878E-02   0.83474E-02   0.83474E-02   0.73356E-01   0.73356E-01   0.73356E-01
   0.42681E+01   0.46188E-01   0.46188E-01   0.75995E-02   0.10008E-01   0.10008E-01   0.10139E+00   0.10139E+00   0.10139E+00
   0.46561E+01   0.69607E-01   0.69607E-01   0.91380E-02   0.13120E-01   0.13120E-01   0.16444E+00   0.16444E+00   0.16444E+00
   0.50441E+01   0.82903E-01   0.82903E-01   0.10122E-01   0.14031E-01   0.14031E-01   0.23045E+00   0.23045E+00   0.23045E+00
   0.54321E+01   0.62286E-01   0.62286E-01   0.10240E-01   0.95422E-02   0.95422E-02   0.19145E+00   0.19145E+00   0.19145E+00
   0.58201E+01   0.62878E-01   0.62878E-01   0.37815E-01   0.10105E-01   0.10105E-01   0.19303E+00   0.19303E+00   0.19303E+00
   0.62081E+01   0.54082E-01   0.54082E-01   0.30767E-01   0.96476E-02   0.96476E-02   0.21772E+00   0.21772E+00   0.21772E+00
   0.65961E+01   0.49135E-01   0.49135E-01   0.36893E-01   0.10265E-01   0.10265E-01   0.22614E+00   0.22614E+00   0.22614E+00
   0.69841E+01   0.78487E-01   0.78487E-01   0.95620E-01   0.30096E-01   0.30096E-01   0.93118E+00   0.93118E+00   0.93118E+00
   0.73721E+01   0.67075E-01   0.67075E-01   0.13478E+00   0.19961E-01   0.19961E-01   0.36803E+00   0.36803E+00   0.36803E+00
   0.77601E+01   0.82719E-01   0.82719E-01   0.13842E+00   0.21369E-01   0.21369E-01   0.37104E+00   0.37104E+00   0.37104E+00
   0.81481E+01   0.63305E-01   0.63305E-01   0.35316E+00   0.18328E-01   0.18328E-01   0.26230E+00   0.26230E+00   0.26230E+00
   0.85361E+01   0.11051E+00   0.11051E+00   0.33156E+00   0.11987E-01   0.11987E-01   0.51283E+00   0.51283E+00   0.51283E+00
   0.89241E+01   0.18321E+00   0.18321E+00   0.33045E+00   0.13908E-01   0.13908E-01   0.34219E+00   0.34219E+00   0.34219E+00
   0.93122E+01   0.90833E-01   0.90833E-01   0.20510E+00   0.95474E-02   0.95474E-02   0.15179E+00   0.15179E+00   0.15179E+00
   0.97002E+01   0.24425E+00   0.24425E+00   0.15569E+00   0.22196E-01   0.22196E-01   0.55399E+00   0.55399E+00   0.55399E+00
   0.10088E+02   0.20852E+00   0.20852E+00   0.14223E+00   0.19872E-01   0.19872E-01   0.45365E+00   0.45365E+00   0.45365E+00
   0.10476E+02   0.15547E+00   0.15547E+00   0.12768E+00   0.12820E-01   0.12820E-01   0.26861E+00   0.26861E+00   0.26861E+00
   0.10864E+02   0.11310E+00   0.11310E+00   0.12684E+00   0.80076E-02   0.80076E-02   0.18240E+00   0.18240E+00   0.18240E+00
   0.11252E+02   0.39415E-01   0.39415E-01   0.65871E-01   0.36232E-02   0.36232E-02   0.52002E-01   0.52002E-01   0.52002E-01
   0.11640E+02   0.89483E-02   0.89483E-02   0.52678E-01   0.20832E-02   0.20832E-02   0.89899E-02   0.89899E-02   0.89899E-02
   0.12028E+02   0.47757E-02   0.47757E-02   0.82996E-01   0.81295E-02   0.81295E-02   0.21788E-02   0.21788E-02   0.21788E-02
   0.12416E+02   0.92425E-02   0.92425E-02   0.18429E+00   0.23872E-01   0.23872E-01   0.36731E-02   0.36731E-02   0.36731E-02
   0.12804E+02   0.18312E-01   0.18312E-01   0.87123E+00   0.10483E+00   0.10483E+00   0.16103E-01   0.16103E-01   0.16103E-01
   0.13192E+02   0.15982E-01   0.15982E-01   0.91861E+00   0.10268E+00   0.10268E+00   0.19784E-01   0.19784E-01   0.19784E-01
   0.13580E+02   0.13431E-01   0.13431E-01   0.95701E+00   0.84223E-01   0.84223E-01   0.19780E-01   0.19780E-01   0.19780E-01
   0.13968E+02   0.10049E-01   0.10049E-01   0.63956E+00   0.49180E-01   0.49180E-01   0.97873E-02   0.97873E-02   0.97873E-02
   0.14356E+02   0.11843E-02   0.11843E-02   0.13798E+00   0.75731E-02   0.75731E-02   0.15719E-02   0.15719E-02   0.15719E-02
   0.14744E+02   0.00000E+00   0.00000E+00   0.00000E+00   0.00000E+00   0.00000E+00   0.00000E+00   0.00000E+00   0.00000E+00
   0.15132E+02   0.00000E+00   0.00000E+00   0.00000E+00   0.00000E+00   0.00000E+00   0.00000E+00   0.00000E+00   0.00000E+00
   0.15520E+02   0.00000E+00   0.00000E+00   0.00000E+00   0.00000E+00   0.00000E+00   0.00000E+00   0.00000E+00   0.00000E+00
   0.15908E+02   0.17571E-05   0.17571E-05   0.25569E-06   0.29611E-05   0.29611E-05   0.20826E-07   0.20826E-07   0.20826E-07
   0.16296E+02   0.11771E-01   0.11771E-01   0.16614E-02   0.20262E-01   0.20262E-01   0.21988E-03   0.21988E-03   0.21988E-03
   0.16684E+02   0.27921E-01   0.27921E-01   0.93677E-02   0.51299E-01   0.51299E-01   0.13393E-02   0.13393E-02   0.13393E-02
   0.17072E+02   0.51855E-01   0.51855E-01   0.22488E-01   0.99141E-01   0.99141E-01   0.35012E-02   0.35012E-02   0.35012E-02
   0.17460E+02   0.16771E+00   0.16771E+00   0.73717E-01   0.58798E+00   0.58798E+00   0.11850E-01   0.11850E-01   0.11850E-01
   0.17848E+02   0.16256E+00   0.16256E+00   0.11885E+00   0.42825E+00   0.42825E+00   0.11250E-01   0.11250E-01   0.11250E-01
   0.18236E+02   0.12248E+00   0.12248E+00   0.13736E+00   0.88706E+00   0.88706E+00   0.27342E-01   0.27342E-01   0.27342E-01
   0.18624E+02   0.51526E-01   0.51526E-01   0.80954E-01   0.52465E+00   0.52465E+00   0.20358E-01   0.20358E-01   0.20358E-01
   0.19012E+02   0.44090E-01   0.44090E-01   0.85021E-01   0.40962E+00   0.40962E+00   0.17439E-01   0.17439E-01   0.17439E-01
   0.19400E+02   0.61116E-01   0.61116E-01   0.83054E-01   0.30898E+00   0.30898E+00   0.13787E-01   0.13787E-01   0.13787E-01
   0.19788E+02   0.87495E-01   0.87495E-01   0.99645E-01   0.41657E+00   0.41657E+00   0.21052E-01   0.21052E-01   0.21052E-01
   0.20176E+02   0.12048E+00   0.12048E+00   0.15359E+00   0.51790E+00   0.51790E+00   0.24489E-01   0.24489E-01   0.24489E-01
   0.20564E+02   0.60077E-01   0.60077E-01   0.56863E-01   0.22251E+00   0.22251E+00   0.70092E-02   0.70092E-02   0.70092E-02
   0.20952E+02   0.49803E-01   0.49803E-01   0.32266E-01   0.22986E+00   0.22986E+00   0.18364E-02   0.18364E-02   0.18364E-02
   0.21340E+02   0.34620E-01   0.34620E-01   0.16009E-01   0.61447E-01   0.61447E-01   0.88385E-03   0.88385E-03   0.88385E-03
   0.21728E+02   0.46174E-01   0.46174E-01   0.14202E-01   0.57221E-01   0.57221E-01   0.75997E-03   0.75997E-03   0.75997E-03
   0.22116E+02   0.26603E+00   0.26603E+00   0.18231E-01   0.18873E+00   0.18873E+00   0.28220E-02   0.28220E-02   0.28220E-02
   0.22504E+02   0.43039E+00   0.43039E+00   0.36739E-01   0.32636E+00   0.32636E+00   0.96745E-02   0.96745E-02   0.96745E-02
   0.22892E+02   0.30882E+00   0.30882E+00   0.43289E-01   0.23790E+00   0.23790E+00   0.10430E-01   0.10430E-01   0.10430E-01
   0.23280E+02   0.29884E+00   0.29884E+00   0.32505E-01   0.26777E+00   0.26777E+00   0.13465E-01   0.13465E-01   0.13465E-01
   0.23668E+02   0.12188E+00   0.12188E+00   0.54959E-02   0.20943E+00   0.20943E+00   0.93134E-02   0.93134E-02   0.93134E-02
   0.24056E+02   0.12536E+00   0.12536E+00   0.46343E-02   0.19415E+00   0.19415E+00   0.13881E-01   0.13881E-01   0.13881E-01
   0.24444E+02   0.11985E+00   0.11985E+00   0.89315E-02   0.38097E+00   0.38097E+00   0.22477E-01   0.22477E-01   0.22477E-01
   0.24832E+02   0.36278E-01   0.36278E-01   0.23908E-02   0.42901E-01   0.42901E-01   0.59801E-02   0.59801E-02   0.59801E-02
   0.25220E+02   0.69623E-01   0.69623E-01   0.51166E-02   0.69460E-01   0.69460E-01   0.14423E-01   0.14423E-01   0.14423E-01
   0.25608E+02   0.17254E+00   0.17254E+00   0.16333E-01   0.18008E+00   0.18008E+00   0.43413E-01   0.43413E-01   0.43413E-01
   0.25996E+02   0.10645E+00   0.10645E+00   0.79251E-02   0.64576E-01   0.64576E-01   0.24650E-01   0.24650E-01   0.24650E-01
   0.26384E+02   0.10508E+00   0.10508E+00   0.61289E-02   0.46969E-01   0.46969E-01   0.26598E-01   0.26598E-01   0.26598E-01
   0.26772E+02   0.11578E+00   0.11578E+00   0.40022E-02   0.36839E-01   0.36839E-01   0.39482E-01   0.39482E-01   0.39482E-01
   0.27160E+02   0.53591E+00   0.53591E+00   0.27769E-02   0.55017E-01   0.55017E-01   0.39189E+00   0.39189E+00   0.39189E+00
   0.27548E+02   0.00000E+00   0.00000E+00   0.00000E+00   0.00000E+00   0.00000E+00   0.00000E+00   0.00000E+00   0.00000E+00
   0.27936E+02   0.00000E+00   0.00000E+00   0.00000E+00   0.00000E+00   0.00000E+00   0.00000E+00   0.00000E+00   0.00000E+00
   0.28324E+02   0.00000E+00   0.00000E+00   0.00000E+00   0.00000E+00   0.00000E+00   0.00000E+00   0.00000E+00   0.00000E+00
   0.28712E+02   0.00000E+00   0.00000E+00   0.00000E+00   0.00000E+00   0.00000E+00   0.00000E+00   0.00000E+00   0.00000E+00
   0.29100E+02   0.37639E-03   0.37639E-03   0.83148E-07   0.17036E-04   0.17036E-04   0.84090E-05   0.84090E-05   0.84090E-05
   0.29488E+02   0.20773E-01   0.20773E-01   0.11783E-04   0.11847E-02   0.11847E-02   0.11123E-02   0.11123E-02   0.11123E-02
   0.29876E+02   0.48239E-01   0.48239E-01   0.37538E-04   0.35595E-02   0.35595E-02   0.40786E-02   0.40786E-02   0.40786E-02
   0.30264E+02   0.74102E-01   0.74102E-01   0.86603E-04   0.53280E-02   0.53280E-02   0.99387E-02   0.99387E-02   0.99387E-02
   0.30652E+02   0.15996E+00   0.15996E+00   0.33193E-03   0.14200E-01   0.14200E-01   0.26805E-01   0.26805E-01   0.26805E-01
   0.31041E+02   0.12223E+00   0.12223E+00   0.14665E-03   0.59726E-02   0.59726E-02   0.33230E-01   0.33230E-01   0.33230E-01
   0.31429E+02   0.14810E+00   0.14810E+00   0.27861E-03   0.62897E-02   0.62897E-02   0.46873E-01   0.46873E-01   0.46873E-01
   0.31817E+02   0.21709E+00   0.21709E+00   0.47384E-03   0.85276E-02   0.85276E-02   0.76147E-01   0.76147E-01   0.76147E-01
   0.32205E+02   0.93069E-01   0.93069E-01   0.25813E-03   0.34247E-02   0.34247E-02   0.36280E-01   0.36280E-01   0.36280E-01
   0.32593E+02   0.13540E-01   0.13540E-01   0.43369E-04   0.46844E-03   0.46844E-03   0.58157E-02   0.58157E-02   0.58157E-02
   0.32981E+02   0.13735E+00   0.13735E+00   0.32932E-03   0.43349E-02   0.43349E-02   0.67879E-01   0.67879E-01   0.67879E-01
   0.33369E+02   0.17763E+00   0.17763E+00   0.74645E-03   0.46960E-02   0.46960E-02   0.90948E-01   0.90948E-01   0.90948E-01
   0.33757E+02   0.18471E+00   0.18471E+00   0.83013E-03   0.45271E-02   0.45271E-02   0.99516E-01   0.99516E-01   0.99516E-01
   0.34145E+02   0.10181E+00   0.10181E+00   0.28594E-03   0.22848E-02   0.22848E-02   0.57159E-01   0.57159E-01   0.57159E-01
   0.34533E+02   0.62341E-01   0.62341E-01   0.13354E-03   0.13576E-02   0.13576E-02   0.34970E-01   0.34970E-01   0.34970E-01
   0.34921E+02   0.40300E-01   0.40300E-01   0.73848E-04   0.80454E-03   0.80454E-03   0.22607E-01   0.22607E-01   0.22607E-01
   0.35309E+02   0.39685E-03   0.39685E-03   0.91047E-06   0.82572E-05   0.82572E-05   0.22131E-03   0.22131E-03   0.22131E-03
   0.35697E+02   0.00000E+00   0.00000E+00   0.00000E+00   0.00000E+00   0.00000E+00   0.00000E+00   0.00000E+00   0.00000E+00
   0.36085E+02   0.00000E+00   0.00000E+00   0.00000E+00   0.00000E+00   0.00000E+00   0.00000E+00   0.00000E+00   0.00000E+00
   0.36473E+02   0.00000E+00   0.00000E+00   0.00000E+00   0.00000E+00   0.00000E+00   0.00000E+00   0.00000E+00   0.00000E+00
   0.36861E+02   0.00000E+00   0.00000E+00   0.00000E+00   0.00000E+00   0.00000E+00   0.00000E+00   0.00000E+00   0.00000E+00
   0.37249E+02   0.00000E+00   0.00000E+00   0.00000E+00   0.00000E+00   0.00000E+00   0.00000E+00   0.00000E+00   0.00000E+00
   0.37637E+02   0.00000E+00   0.00000E+00   0.00000E+00   0.00000E+00   0.00000E+00   0.00000E+00   0.00000E+00   0.00000E+00
   0.38025E+02   0.00000E+00   0.00000E+00   0.00000E+00   0.00000E+00   0.00000E+00   0.00000E+00   0.00000E+00   0.00000E+00
   0.38413E+02   0.00000E+00   0.00000E+00   0.00000E+00   0.00000E+00   0.00000E+00   0.00000E+00   0.00000E+00   0.00000E+00
   0.38801E+02   0.00000E+00   0.00000E+00   0.00000E+00   0.00000E+00   0.00000E+00   0.00000E+00   0.00000E+00   0.00000E+00
