phonopy:
  version: "2.33.3"
  frequency_unit_conversion_factor: 15.633302
  symmetry_tolerance: 1.00000e-05
  configuration:
    cell_filename: "POSCAR"
    create_displacements: ".true."
    dim: "3 3 3"

physical_unit:
  atomic_mass: "AMU"
  length: "angstrom"

space_group:
  type: "R-3m"
  number: 166
  Hall_symbol: "-R 3 2\""

supercell_matrix:
- [   3,   0,   0 ]
- [   0,   3,   0 ]
- [   0,   0,   3 ]

primitive_cell:
  lattice:
  - [     3.180905575617350,     1.836496690349459,     7.274619381392039 ] # a
  - [    -3.180905575617351,     1.836496690349459,     7.274619381392039 ] # b
  - [     0.000000000000000,    -3.672993380698918,     7.274619381392039 ] # c
  points:
  - symbol: Sb # 1
    coordinates: [  0.757710503307237,  0.757710503307237,  0.757710503307237 ]
    mass: 121.760000
  - symbol: Sb # 2
    coordinates: [  0.242289496692763,  0.242289496692763,  0.242289496692763 ]
    mass: 121.760000
  - symbol: K # 3
    coordinates: [  0.500000000000000,  0.500000000000000,  0.500000000000000 ]
    mass: 39.098300
  - symbol: K # 4
    coordinates: [  0.081027435863383,  0.081027435863383,  0.081027435863383 ]
    mass: 39.098300
  - symbol: K # 5
    coordinates: [  0.918972564136617,  0.918972564136617,  0.918972564136617 ]
    mass: 39.098300
  - symbol: Au # 6
    coordinates: [  0.500000000000000,  0.500000000000000,  0.000000000000000 ]
    mass: 196.966569
  - symbol: Au # 7
    coordinates: [  0.000000000000000,  0.500000000000000,  0.500000000000000 ]
    mass: 196.966569
  - symbol: Au # 8
    coordinates: [  0.500000000000000,  0.000000000000000,  0.500000000000000 ]
    mass: 196.966569
  reciprocal_lattice: # without 2pi
  - [     0.157187941645505,     0.090752500422395,     0.045821412208311 ] # a*
  - [    -0.157187941645504,     0.090752500422395,     0.045821412208311 ] # b*
  - [     0.000000000000000,    -0.181505000844790,     0.045821412208311 ] # c*

unit_cell:
  lattice:
  - [     3.180905575617350,     1.836496690349459,     7.274619381392039 ] # a
  - [    -3.180905575617351,     1.836496690349459,     7.274619381392039 ] # b
  - [     0.000000000000000,    -3.672993380698918,     7.274619381392039 ] # c
  points:
  - symbol: Sb # 1
    coordinates: [  0.757710503307237,  0.757710503307237,  0.757710503307237 ]
    mass: 121.760000
    reduced_to: 1
  - symbol: Sb # 2
    coordinates: [  0.242289496692763,  0.242289496692763,  0.242289496692763 ]
    mass: 121.760000
    reduced_to: 2
  - symbol: K # 3
    coordinates: [  0.500000000000000,  0.500000000000000,  0.500000000000000 ]
    mass: 39.098300
    reduced_to: 3
  - symbol: K # 4
    coordinates: [  0.081027435863383,  0.081027435863383,  0.081027435863383 ]
    mass: 39.098300
    reduced_to: 4
  - symbol: K # 5
    coordinates: [  0.918972564136617,  0.918972564136617,  0.918972564136617 ]
    mass: 39.098300
    reduced_to: 5
  - symbol: Au # 6
    coordinates: [  0.500000000000000,  0.500000000000000,  0.000000000000000 ]
    mass: 196.966569
    reduced_to: 6
  - symbol: Au # 7
    coordinates: [  0.000000000000000,  0.500000000000000,  0.500000000000000 ]
    mass: 196.966569
    reduced_to: 7
  - symbol: Au # 8
    coordinates: [  0.500000000000000,  0.000000000000000,  0.500000000000000 ]
    mass: 196.966569
    reduced_to: 8

supercell:
  lattice:
  - [     9.542716726852051,     5.509490071048377,    21.823858144176118 ] # a
  - [    -9.542716726852053,     5.509490071048377,    21.823858144176118 ] # b
  - [     0.000000000000000,   -11.018980142096755,    21.823858144176118 ] # c
  points:
  - symbol: Sb # 1
    coordinates: [  0.252570167769079,  0.252570167769079,  0.252570167769079 ]
    mass: 121.760000
    reduced_to: 1
  - symbol: Sb # 2
    coordinates: [  0.585903501102412,  0.252570167769079,  0.252570167769079 ]
    mass: 121.760000
    reduced_to: 1
  - symbol: Sb # 3
    coordinates: [  0.919236834435746,  0.252570167769079,  0.252570167769079 ]
    mass: 121.760000
    reduced_to: 1
  - symbol: Sb # 4
    coordinates: [  0.252570167769079,  0.585903501102412,  0.252570167769079 ]
    mass: 121.760000
    reduced_to: 1
  - symbol: Sb # 5
    coordinates: [  0.585903501102412,  0.585903501102412,  0.252570167769079 ]
    mass: 121.760000
    reduced_to: 1
  - symbol: Sb # 6
    coordinates: [  0.919236834435746,  0.585903501102412,  0.252570167769079 ]
    mass: 121.760000
    reduced_to: 1
  - symbol: Sb # 7
    coordinates: [  0.252570167769079,  0.919236834435746,  0.252570167769079 ]
    mass: 121.760000
    reduced_to: 1
  - symbol: Sb # 8
    coordinates: [  0.585903501102412,  0.919236834435746,  0.252570167769079 ]
    mass: 121.760000
    reduced_to: 1
  - symbol: Sb # 9
    coordinates: [  0.919236834435746,  0.919236834435746,  0.252570167769079 ]
    mass: 121.760000
    reduced_to: 1
  - symbol: Sb # 10
    coordinates: [  0.252570167769079,  0.252570167769079,  0.585903501102412 ]
    mass: 121.760000
    reduced_to: 1
  - symbol: Sb # 11
    coordinates: [  0.585903501102412,  0.252570167769079,  0.585903501102412 ]
    mass: 121.760000
    reduced_to: 1
  - symbol: Sb # 12
    coordinates: [  0.919236834435746,  0.252570167769079,  0.585903501102412 ]
    mass: 121.760000
    reduced_to: 1
  - symbol: Sb # 13
    coordinates: [  0.252570167769079,  0.585903501102412,  0.585903501102412 ]
    mass: 121.760000
    reduced_to: 1
  - symbol: Sb # 14
    coordinates: [  0.585903501102412,  0.585903501102412,  0.585903501102412 ]
    mass: 121.760000
    reduced_to: 1
  - symbol: Sb # 15
    coordinates: [  0.919236834435746,  0.585903501102412,  0.585903501102412 ]
    mass: 121.760000
    reduced_to: 1
  - symbol: Sb # 16
    coordinates: [  0.252570167769079,  0.919236834435746,  0.585903501102412 ]
    mass: 121.760000
    reduced_to: 1
  - symbol: Sb # 17
    coordinates: [  0.585903501102412,  0.919236834435746,  0.585903501102412 ]
    mass: 121.760000
    reduced_to: 1
  - symbol: Sb # 18
    coordinates: [  0.919236834435746,  0.919236834435746,  0.585903501102412 ]
    mass: 121.760000
    reduced_to: 1
  - symbol: Sb # 19
    coordinates: [  0.252570167769079,  0.252570167769079,  0.919236834435746 ]
    mass: 121.760000
    reduced_to: 1
  - symbol: Sb # 20
    coordinates: [  0.585903501102412,  0.252570167769079,  0.919236834435746 ]
    mass: 121.760000
    reduced_to: 1
  - symbol: Sb # 21
    coordinates: [  0.919236834435746,  0.252570167769079,  0.919236834435746 ]
    mass: 121.760000
    reduced_to: 1
  - symbol: Sb # 22
    coordinates: [  0.252570167769079,  0.585903501102412,  0.919236834435746 ]
    mass: 121.760000
    reduced_to: 1
  - symbol: Sb # 23
    coordinates: [  0.585903501102412,  0.585903501102412,  0.919236834435746 ]
    mass: 121.760000
    reduced_to: 1
  - symbol: Sb # 24
    coordinates: [  0.919236834435746,  0.585903501102412,  0.919236834435746 ]
    mass: 121.760000
    reduced_to: 1
  - symbol: Sb # 25
    coordinates: [  0.252570167769079,  0.919236834435746,  0.919236834435746 ]
    mass: 121.760000
    reduced_to: 1
  - symbol: Sb # 26
    coordinates: [  0.585903501102412,  0.919236834435746,  0.919236834435746 ]
    mass: 121.760000
    reduced_to: 1
  - symbol: Sb # 27
    coordinates: [  0.919236834435746,  0.919236834435746,  0.919236834435746 ]
    mass: 121.760000
    reduced_to: 1
  - symbol: Sb # 28
    coordinates: [  0.080763165564254,  0.080763165564254,  0.080763165564254 ]
    mass: 121.760000
    reduced_to: 28
  - symbol: Sb # 29
    coordinates: [  0.414096498897588,  0.080763165564254,  0.080763165564254 ]
    mass: 121.760000
    reduced_to: 28
  - symbol: Sb # 30
    coordinates: [  0.747429832230921,  0.080763165564254,  0.080763165564254 ]
    mass: 121.760000
    reduced_to: 28
  - symbol: Sb # 31
    coordinates: [  0.080763165564254,  0.414096498897588,  0.080763165564254 ]
    mass: 121.760000
    reduced_to: 28
  - symbol: Sb # 32
    coordinates: [  0.414096498897588,  0.414096498897588,  0.080763165564254 ]
    mass: 121.760000
    reduced_to: 28
  - symbol: Sb # 33
    coordinates: [  0.747429832230921,  0.414096498897588,  0.080763165564254 ]
    mass: 121.760000
    reduced_to: 28
  - symbol: Sb # 34
    coordinates: [  0.080763165564254,  0.747429832230921,  0.080763165564254 ]
    mass: 121.760000
    reduced_to: 28
  - symbol: Sb # 35
    coordinates: [  0.414096498897588,  0.747429832230921,  0.080763165564254 ]
    mass: 121.760000
    reduced_to: 28
  - symbol: Sb # 36
    coordinates: [  0.747429832230921,  0.747429832230921,  0.080763165564254 ]
    mass: 121.760000
    reduced_to: 28
  - symbol: Sb # 37
    coordinates: [  0.080763165564254,  0.080763165564254,  0.414096498897588 ]
    mass: 121.760000
    reduced_to: 28
  - symbol: Sb # 38
    coordinates: [  0.414096498897588,  0.080763165564254,  0.414096498897588 ]
    mass: 121.760000
    reduced_to: 28
  - symbol: Sb # 39
    coordinates: [  0.747429832230921,  0.080763165564254,  0.414096498897588 ]
    mass: 121.760000
    reduced_to: 28
  - symbol: Sb # 40
    coordinates: [  0.080763165564254,  0.414096498897588,  0.414096498897588 ]
    mass: 121.760000
    reduced_to: 28
  - symbol: Sb # 41
    coordinates: [  0.414096498897588,  0.414096498897588,  0.414096498897588 ]
    mass: 121.760000
    reduced_to: 28
  - symbol: Sb # 42
    coordinates: [  0.747429832230921,  0.414096498897588,  0.414096498897588 ]
    mass: 121.760000
    reduced_to: 28
  - symbol: Sb # 43
    coordinates: [  0.080763165564254,  0.747429832230921,  0.414096498897588 ]
    mass: 121.760000
    reduced_to: 28
  - symbol: Sb # 44
    coordinates: [  0.414096498897588,  0.747429832230921,  0.414096498897588 ]
    mass: 121.760000
    reduced_to: 28
  - symbol: Sb # 45
    coordinates: [  0.747429832230921,  0.747429832230921,  0.414096498897588 ]
    mass: 121.760000
    reduced_to: 28
  - symbol: Sb # 46
    coordinates: [  0.080763165564254,  0.080763165564254,  0.747429832230921 ]
    mass: 121.760000
    reduced_to: 28
  - symbol: Sb # 47
    coordinates: [  0.414096498897588,  0.080763165564254,  0.747429832230921 ]
    mass: 121.760000
    reduced_to: 28
  - symbol: Sb # 48
    coordinates: [  0.747429832230921,  0.080763165564254,  0.747429832230921 ]
    mass: 121.760000
    reduced_to: 28
  - symbol: Sb # 49
    coordinates: [  0.080763165564254,  0.414096498897588,  0.747429832230921 ]
    mass: 121.760000
    reduced_to: 28
  - symbol: Sb # 50
    coordinates: [  0.414096498897588,  0.414096498897588,  0.747429832230921 ]
    mass: 121.760000
    reduced_to: 28
  - symbol: Sb # 51
    coordinates: [  0.747429832230921,  0.414096498897588,  0.747429832230921 ]
    mass: 121.760000
    reduced_to: 28
  - symbol: Sb # 52
    coordinates: [  0.080763165564254,  0.747429832230921,  0.747429832230921 ]
    mass: 121.760000
    reduced_to: 28
  - symbol: Sb # 53
    coordinates: [  0.414096498897588,  0.747429832230921,  0.747429832230921 ]
    mass: 121.760000
    reduced_to: 28
  - symbol: Sb # 54
    coordinates: [  0.747429832230921,  0.747429832230921,  0.747429832230921 ]
    mass: 121.760000
    reduced_to: 28
  - symbol: K # 55
    coordinates: [  0.166666666666667,  0.166666666666667,  0.166666666666667 ]
    mass: 39.098300
    reduced_to: 55
  - symbol: K # 56
    coordinates: [  0.500000000000000,  0.166666666666667,  0.166666666666667 ]
    mass: 39.098300
    reduced_to: 55
  - symbol: K # 57
    coordinates: [  0.833333333333333,  0.166666666666667,  0.166666666666667 ]
    mass: 39.098300
    reduced_to: 55
  - symbol: K # 58
    coordinates: [  0.166666666666667,  0.500000000000000,  0.166666666666667 ]
    mass: 39.098300
    reduced_to: 55
  - symbol: K # 59
    coordinates: [  0.500000000000000,  0.500000000000000,  0.166666666666667 ]
    mass: 39.098300
    reduced_to: 55
  - symbol: K # 60
    coordinates: [  0.833333333333333,  0.500000000000000,  0.166666666666667 ]
    mass: 39.098300
    reduced_to: 55
  - symbol: K # 61
    coordinates: [  0.166666666666667,  0.833333333333333,  0.166666666666667 ]
    mass: 39.098300
    reduced_to: 55
  - symbol: K # 62
    coordinates: [  0.500000000000000,  0.833333333333333,  0.166666666666667 ]
    mass: 39.098300
    reduced_to: 55
  - symbol: K # 63
    coordinates: [  0.833333333333333,  0.833333333333333,  0.166666666666667 ]
    mass: 39.098300
    reduced_to: 55
  - symbol: K # 64
    coordinates: [  0.166666666666667,  0.166666666666667,  0.500000000000000 ]
    mass: 39.098300
    reduced_to: 55
  - symbol: K # 65
    coordinates: [  0.500000000000000,  0.166666666666667,  0.500000000000000 ]
    mass: 39.098300
    reduced_to: 55
  - symbol: K # 66
    coordinates: [  0.833333333333333,  0.166666666666667,  0.500000000000000 ]
    mass: 39.098300
    reduced_to: 55
  - symbol: K # 67
    coordinates: [  0.166666666666667,  0.500000000000000,  0.500000000000000 ]
    mass: 39.098300
    reduced_to: 55
  - symbol: K # 68
    coordinates: [  0.500000000000000,  0.500000000000000,  0.500000000000000 ]
    mass: 39.098300
    reduced_to: 55
  - symbol: K # 69
    coordinates: [  0.833333333333333,  0.500000000000000,  0.500000000000000 ]
    mass: 39.098300
    reduced_to: 55
  - symbol: K # 70
    coordinates: [  0.166666666666667,  0.833333333333333,  0.500000000000000 ]
    mass: 39.098300
    reduced_to: 55
  - symbol: K # 71
    coordinates: [  0.500000000000000,  0.833333333333333,  0.500000000000000 ]
    mass: 39.098300
    reduced_to: 55
  - symbol: K # 72
    coordinates: [  0.833333333333333,  0.833333333333333,  0.500000000000000 ]
    mass: 39.098300
    reduced_to: 55
  - symbol: K # 73
    coordinates: [  0.166666666666667,  0.166666666666667,  0.833333333333333 ]
    mass: 39.098300
    reduced_to: 55
  - symbol: K # 74
    coordinates: [  0.500000000000000,  0.166666666666667,  0.833333333333333 ]
    mass: 39.098300
    reduced_to: 55
  - symbol: K # 75
    coordinates: [  0.833333333333333,  0.166666666666667,  0.833333333333333 ]
    mass: 39.098300
    reduced_to: 55
  - symbol: K # 76
    coordinates: [  0.166666666666667,  0.500000000000000,  0.833333333333333 ]
    mass: 39.098300
    reduced_to: 55
  - symbol: K # 77
    coordinates: [  0.500000000000000,  0.500000000000000,  0.833333333333333 ]
    mass: 39.098300
    reduced_to: 55
  - symbol: K # 78
    coordinates: [  0.833333333333333,  0.500000000000000,  0.833333333333333 ]
    mass: 39.098300
    reduced_to: 55
  - symbol: K # 79
    coordinates: [  0.166666666666667,  0.833333333333333,  0.833333333333333 ]
    mass: 39.098300
    reduced_to: 55
  - symbol: K # 80
    coordinates: [  0.500000000000000,  0.833333333333333,  0.833333333333333 ]
    mass: 39.098300
    reduced_to: 55
  - symbol: K # 81
    coordinates: [  0.833333333333333,  0.833333333333333,  0.833333333333333 ]
    mass: 39.098300
    reduced_to: 55
  - symbol: K # 82
    coordinates: [  0.027009145287794,  0.027009145287794,  0.027009145287794 ]
    mass: 39.098300
    reduced_to: 82
  - symbol: K # 83
    coordinates: [  0.360342478621128,  0.027009145287794,  0.027009145287794 ]
    mass: 39.098300
    reduced_to: 82
  - symbol: K # 84
    coordinates: [  0.693675811954461,  0.027009145287794,  0.027009145287794 ]
    mass: 39.098300
    reduced_to: 82
  - symbol: K # 85
    coordinates: [  0.027009145287794,  0.360342478621128,  0.027009145287794 ]
    mass: 39.098300
    reduced_to: 82
  - symbol: K # 86
    coordinates: [  0.360342478621128,  0.360342478621128,  0.027009145287794 ]
    mass: 39.098300
    reduced_to: 82
  - symbol: K # 87
    coordinates: [  0.693675811954461,  0.360342478621128,  0.027009145287794 ]
    mass: 39.098300
    reduced_to: 82
  - symbol: K # 88
    coordinates: [  0.027009145287794,  0.693675811954461,  0.027009145287794 ]
    mass: 39.098300
    reduced_to: 82
  - symbol: K # 89
    coordinates: [  0.360342478621128,  0.693675811954461,  0.027009145287794 ]
    mass: 39.098300
    reduced_to: 82
  - symbol: K # 90
    coordinates: [  0.693675811954461,  0.693675811954461,  0.027009145287794 ]
    mass: 39.098300
    reduced_to: 82
  - symbol: K # 91
    coordinates: [  0.027009145287794,  0.027009145287794,  0.360342478621128 ]
    mass: 39.098300
    reduced_to: 82
  - symbol: K # 92
    coordinates: [  0.360342478621128,  0.027009145287794,  0.360342478621128 ]
    mass: 39.098300
    reduced_to: 82
  - symbol: K # 93
    coordinates: [  0.693675811954461,  0.027009145287794,  0.360342478621128 ]
    mass: 39.098300
    reduced_to: 82
  - symbol: K # 94
    coordinates: [  0.027009145287794,  0.360342478621128,  0.360342478621128 ]
    mass: 39.098300
    reduced_to: 82
  - symbol: K # 95
    coordinates: [  0.360342478621128,  0.360342478621128,  0.360342478621128 ]
    mass: 39.098300
    reduced_to: 82
  - symbol: K # 96
    coordinates: [  0.693675811954461,  0.360342478621128,  0.360342478621128 ]
    mass: 39.098300
    reduced_to: 82
  - symbol: K # 97
    coordinates: [  0.027009145287794,  0.693675811954461,  0.360342478621128 ]
    mass: 39.098300
    reduced_to: 82
  - symbol: K # 98
    coordinates: [  0.360342478621128,  0.693675811954461,  0.360342478621128 ]
    mass: 39.098300
    reduced_to: 82
  - symbol: K # 99
    coordinates: [  0.693675811954461,  0.693675811954461,  0.360342478621128 ]
    mass: 39.098300
    reduced_to: 82
  - symbol: K # 100
    coordinates: [  0.027009145287794,  0.027009145287794,  0.693675811954461 ]
    mass: 39.098300
    reduced_to: 82
  - symbol: K # 101
    coordinates: [  0.360342478621128,  0.027009145287794,  0.693675811954461 ]
    mass: 39.098300
    reduced_to: 82
  - symbol: K # 102
    coordinates: [  0.693675811954461,  0.027009145287794,  0.693675811954461 ]
    mass: 39.098300
    reduced_to: 82
  - symbol: K # 103
    coordinates: [  0.027009145287794,  0.360342478621128,  0.693675811954461 ]
    mass: 39.098300
    reduced_to: 82
  - symbol: K # 104
    coordinates: [  0.360342478621128,  0.360342478621128,  0.693675811954461 ]
    mass: 39.098300
    reduced_to: 82
  - symbol: K # 105
    coordinates: [  0.693675811954461,  0.360342478621128,  0.693675811954461 ]
    mass: 39.098300
    reduced_to: 82
  - symbol: K # 106
    coordinates: [  0.027009145287794,  0.693675811954461,  0.693675811954461 ]
    mass: 39.098300
    reduced_to: 82
  - symbol: K # 107
    coordinates: [  0.360342478621128,  0.693675811954461,  0.693675811954461 ]
    mass: 39.098300
    reduced_to: 82
  - symbol: K # 108
    coordinates: [  0.693675811954461,  0.693675811954461,  0.693675811954461 ]
    mass: 39.098300
    reduced_to: 82
  - symbol: K # 109
    coordinates: [  0.306324188045539,  0.306324188045539,  0.306324188045539 ]
    mass: 39.098300
    reduced_to: 109
  - symbol: K # 110
    coordinates: [  0.639657521378872,  0.306324188045539,  0.306324188045539 ]
    mass: 39.098300
    reduced_to: 109
  - symbol: K # 111
    coordinates: [  0.972990854712205,  0.306324188045539,  0.306324188045539 ]
    mass: 39.098300
    reduced_to: 109
  - symbol: K # 112
    coordinates: [  0.306324188045539,  0.639657521378872,  0.306324188045539 ]
    mass: 39.098300
    reduced_to: 109
  - symbol: K # 113
    coordinates: [  0.639657521378872,  0.639657521378872,  0.306324188045539 ]
    mass: 39.098300
    reduced_to: 109
  - symbol: K # 114
    coordinates: [  0.972990854712205,  0.639657521378872,  0.306324188045539 ]
    mass: 39.098300
    reduced_to: 109
  - symbol: K # 115
    coordinates: [  0.306324188045539,  0.972990854712205,  0.306324188045539 ]
    mass: 39.098300
    reduced_to: 109
  - symbol: K # 116
    coordinates: [  0.639657521378872,  0.972990854712205,  0.306324188045539 ]
    mass: 39.098300
    reduced_to: 109
  - symbol: K # 117
    coordinates: [  0.972990854712205,  0.972990854712205,  0.306324188045539 ]
    mass: 39.098300
    reduced_to: 109
  - symbol: K # 118
    coordinates: [  0.306324188045539,  0.306324188045539,  0.639657521378872 ]
    mass: 39.098300
    reduced_to: 109
  - symbol: K # 119
    coordinates: [  0.639657521378872,  0.306324188045539,  0.639657521378872 ]
    mass: 39.098300
    reduced_to: 109
  - symbol: K # 120
    coordinates: [  0.972990854712205,  0.306324188045539,  0.639657521378872 ]
    mass: 39.098300
    reduced_to: 109
  - symbol: K # 121
    coordinates: [  0.306324188045539,  0.639657521378872,  0.639657521378872 ]
    mass: 39.098300
    reduced_to: 109
  - symbol: K # 122
    coordinates: [  0.639657521378872,  0.639657521378872,  0.639657521378872 ]
    mass: 39.098300
    reduced_to: 109
  - symbol: K # 123
    coordinates: [  0.972990854712205,  0.639657521378872,  0.639657521378872 ]
    mass: 39.098300
    reduced_to: 109
  - symbol: K # 124
    coordinates: [  0.306324188045539,  0.972990854712205,  0.639657521378872 ]
    mass: 39.098300
    reduced_to: 109
  - symbol: K # 125
    coordinates: [  0.639657521378872,  0.972990854712205,  0.639657521378872 ]
    mass: 39.098300
    reduced_to: 109
  - symbol: K # 126
    coordinates: [  0.972990854712205,  0.972990854712205,  0.639657521378872 ]
    mass: 39.098300
    reduced_to: 109
  - symbol: K # 127
    coordinates: [  0.306324188045539,  0.306324188045539,  0.972990854712205 ]
    mass: 39.098300
    reduced_to: 109
  - symbol: K # 128
    coordinates: [  0.639657521378872,  0.306324188045539,  0.972990854712205 ]
    mass: 39.098300
    reduced_to: 109
  - symbol: K # 129
    coordinates: [  0.972990854712205,  0.306324188045539,  0.972990854712205 ]
    mass: 39.098300
    reduced_to: 109
  - symbol: K # 130
    coordinates: [  0.306324188045539,  0.639657521378872,  0.972990854712205 ]
    mass: 39.098300
    reduced_to: 109
  - symbol: K # 131
    coordinates: [  0.639657521378872,  0.639657521378872,  0.972990854712205 ]
    mass: 39.098300
    reduced_to: 109
  - symbol: K # 132
    coordinates: [  0.972990854712205,  0.639657521378872,  0.972990854712205 ]
    mass: 39.098300
    reduced_to: 109
  - symbol: K # 133
    coordinates: [  0.306324188045539,  0.972990854712205,  0.972990854712205 ]
    mass: 39.098300
    reduced_to: 109
  - symbol: K # 134
    coordinates: [  0.639657521378872,  0.972990854712205,  0.972990854712205 ]
    mass: 39.098300
    reduced_to: 109
  - symbol: K # 135
    coordinates: [  0.972990854712205,  0.972990854712205,  0.972990854712205 ]
    mass: 39.098300
    reduced_to: 109
  - symbol: Au # 136
    coordinates: [  0.166666666666667,  0.166666666666667,  0.000000000000000 ]
    mass: 196.966569
    reduced_to: 136
  - symbol: Au # 137
    coordinates: [  0.500000000000000,  0.166666666666667,  0.000000000000000 ]
    mass: 196.966569
    reduced_to: 136
  - symbol: Au # 138
    coordinates: [  0.833333333333333,  0.166666666666667,  0.000000000000000 ]
    mass: 196.966569
    reduced_to: 136
  - symbol: Au # 139
    coordinates: [  0.166666666666667,  0.500000000000000,  0.000000000000000 ]
    mass: 196.966569
    reduced_to: 136
  - symbol: Au # 140
    coordinates: [  0.500000000000000,  0.500000000000000,  0.000000000000000 ]
    mass: 196.966569
    reduced_to: 136
  - symbol: Au # 141
    coordinates: [  0.833333333333333,  0.500000000000000,  0.000000000000000 ]
    mass: 196.966569
    reduced_to: 136
  - symbol: Au # 142
    coordinates: [  0.166666666666667,  0.833333333333333,  0.000000000000000 ]
    mass: 196.966569
    reduced_to: 136
  - symbol: Au # 143
    coordinates: [  0.500000000000000,  0.833333333333333,  0.000000000000000 ]
    mass: 196.966569
    reduced_to: 136
  - symbol: Au # 144
    coordinates: [  0.833333333333333,  0.833333333333333,  0.000000000000000 ]
    mass: 196.966569
    reduced_to: 136
  - symbol: Au # 145
    coordinates: [  0.166666666666667,  0.166666666666667,  0.333333333333333 ]
    mass: 196.966569
    reduced_to: 136
  - symbol: Au # 146
    coordinates: [  0.500000000000000,  0.166666666666667,  0.333333333333333 ]
    mass: 196.966569
    reduced_to: 136
  - symbol: Au # 147
    coordinates: [  0.833333333333333,  0.166666666666667,  0.333333333333333 ]
    mass: 196.966569
    reduced_to: 136
  - symbol: Au # 148
    coordinates: [  0.166666666666667,  0.500000000000000,  0.333333333333333 ]
    mass: 196.966569
    reduced_to: 136
  - symbol: Au # 149
    coordinates: [  0.500000000000000,  0.500000000000000,  0.333333333333333 ]
    mass: 196.966569
    reduced_to: 136
  - symbol: Au # 150
    coordinates: [  0.833333333333333,  0.500000000000000,  0.333333333333333 ]
    mass: 196.966569
    reduced_to: 136
  - symbol: Au # 151
    coordinates: [  0.166666666666667,  0.833333333333333,  0.333333333333333 ]
    mass: 196.966569
    reduced_to: 136
  - symbol: Au # 152
    coordinates: [  0.500000000000000,  0.833333333333333,  0.333333333333333 ]
    mass: 196.966569
    reduced_to: 136
  - symbol: Au # 153
    coordinates: [  0.833333333333333,  0.833333333333333,  0.333333333333333 ]
    mass: 196.966569
    reduced_to: 136
  - symbol: Au # 154
    coordinates: [  0.166666666666667,  0.166666666666667,  0.666666666666667 ]
    mass: 196.966569
    reduced_to: 136
  - symbol: Au # 155
    coordinates: [  0.500000000000000,  0.166666666666667,  0.666666666666667 ]
    mass: 196.966569
    reduced_to: 136
  - symbol: Au # 156
    coordinates: [  0.833333333333333,  0.166666666666667,  0.666666666666667 ]
    mass: 196.966569
    reduced_to: 136
  - symbol: Au # 157
    coordinates: [  0.166666666666667,  0.500000000000000,  0.666666666666667 ]
    mass: 196.966569
    reduced_to: 136
  - symbol: Au # 158
    coordinates: [  0.500000000000000,  0.500000000000000,  0.666666666666667 ]
    mass: 196.966569
    reduced_to: 136
  - symbol: Au # 159
    coordinates: [  0.833333333333333,  0.500000000000000,  0.666666666666667 ]
    mass: 196.966569
    reduced_to: 136
  - symbol: Au # 160
    coordinates: [  0.166666666666667,  0.833333333333333,  0.666666666666667 ]
    mass: 196.966569
    reduced_to: 136
  - symbol: Au # 161
    coordinates: [  0.500000000000000,  0.833333333333333,  0.666666666666667 ]
    mass: 196.966569
    reduced_to: 136
  - symbol: Au # 162
    coordinates: [  0.833333333333333,  0.833333333333333,  0.666666666666667 ]
    mass: 196.966569
    reduced_to: 136
  - symbol: Au # 163
    coordinates: [  0.000000000000000,  0.166666666666667,  0.166666666666667 ]
    mass: 196.966569
    reduced_to: 163
  - symbol: Au # 164
    coordinates: [  0.333333333333333,  0.166666666666667,  0.166666666666667 ]
    mass: 196.966569
    reduced_to: 163
  - symbol: Au # 165
    coordinates: [  0.666666666666667,  0.166666666666667,  0.166666666666667 ]
    mass: 196.966569
    reduced_to: 163
  - symbol: Au # 166
    coordinates: [  0.000000000000000,  0.500000000000000,  0.166666666666667 ]
    mass: 196.966569
    reduced_to: 163
  - symbol: Au # 167
    coordinates: [  0.333333333333333,  0.500000000000000,  0.166666666666667 ]
    mass: 196.966569
    reduced_to: 163
  - symbol: Au # 168
    coordinates: [  0.666666666666667,  0.500000000000000,  0.166666666666667 ]
    mass: 196.966569
    reduced_to: 163
  - symbol: Au # 169
    coordinates: [  0.000000000000000,  0.833333333333333,  0.166666666666667 ]
    mass: 196.966569
    reduced_to: 163
  - symbol: Au # 170
    coordinates: [  0.333333333333333,  0.833333333333333,  0.166666666666667 ]
    mass: 196.966569
    reduced_to: 163
  - symbol: Au # 171
    coordinates: [  0.666666666666667,  0.833333333333333,  0.166666666666667 ]
    mass: 196.966569
    reduced_to: 163
  - symbol: Au # 172
    coordinates: [  0.000000000000000,  0.166666666666667,  0.500000000000000 ]
    mass: 196.966569
    reduced_to: 163
  - symbol: Au # 173
    coordinates: [  0.333333333333333,  0.166666666666667,  0.500000000000000 ]
    mass: 196.966569
    reduced_to: 163
  - symbol: Au # 174
    coordinates: [  0.666666666666667,  0.166666666666667,  0.500000000000000 ]
    mass: 196.966569
    reduced_to: 163
  - symbol: Au # 175
    coordinates: [  0.000000000000000,  0.500000000000000,  0.500000000000000 ]
    mass: 196.966569
    reduced_to: 163
  - symbol: Au # 176
    coordinates: [  0.333333333333333,  0.500000000000000,  0.500000000000000 ]
    mass: 196.966569
    reduced_to: 163
  - symbol: Au # 177
    coordinates: [  0.666666666666667,  0.500000000000000,  0.500000000000000 ]
    mass: 196.966569
    reduced_to: 163
  - symbol: Au # 178
    coordinates: [  0.000000000000000,  0.833333333333333,  0.500000000000000 ]
    mass: 196.966569
    reduced_to: 163
  - symbol: Au # 179
    coordinates: [  0.333333333333333,  0.833333333333333,  0.500000000000000 ]
    mass: 196.966569
    reduced_to: 163
  - symbol: Au # 180
    coordinates: [  0.666666666666667,  0.833333333333333,  0.500000000000000 ]
    mass: 196.966569
    reduced_to: 163
  - symbol: Au # 181
    coordinates: [  0.000000000000000,  0.166666666666667,  0.833333333333333 ]
    mass: 196.966569
    reduced_to: 163
  - symbol: Au # 182
    coordinates: [  0.333333333333333,  0.166666666666667,  0.833333333333333 ]
    mass: 196.966569
    reduced_to: 163
  - symbol: Au # 183
    coordinates: [  0.666666666666667,  0.166666666666667,  0.833333333333333 ]
    mass: 196.966569
    reduced_to: 163
  - symbol: Au # 184
    coordinates: [  0.000000000000000,  0.500000000000000,  0.833333333333333 ]
    mass: 196.966569
    reduced_to: 163
  - symbol: Au # 185
    coordinates: [  0.333333333333333,  0.500000000000000,  0.833333333333333 ]
    mass: 196.966569
    reduced_to: 163
  - symbol: Au # 186
    coordinates: [  0.666666666666667,  0.500000000000000,  0.833333333333333 ]
    mass: 196.966569
    reduced_to: 163
  - symbol: Au # 187
    coordinates: [  0.000000000000000,  0.833333333333333,  0.833333333333333 ]
    mass: 196.966569
    reduced_to: 163
  - symbol: Au # 188
    coordinates: [  0.333333333333333,  0.833333333333333,  0.833333333333333 ]
    mass: 196.966569
    reduced_to: 163
  - symbol: Au # 189
    coordinates: [  0.666666666666667,  0.833333333333333,  0.833333333333333 ]
    mass: 196.966569
    reduced_to: 163